# vtk DataFile Version 3.0
MOAB 5.5.0
ASCII
DATASET UNSTRUCTURED_GRID
POINTS 1568 double
82.25230654 176.2924732 0
84.65630287 178.7297902 0
187.4611102 54.91642295 0
185.4119627 59.76371164 0
178.8349382 56.44359545 0
183.7320119 53.94165662 0
182.6677669 58.63834954 0
175.2243617 59.09558184 0
55.85204371 172.3728071 0
61.22671107 168.9007018 0
55.61257357 183.0992033 0
53.13287398 179.8100599 0
51.90568942 182.9749789 0
53.61710931 181.9288116 0
58.1580643 174.9181587 0
63.50996504 176.5377358 0
186.8738722 63.55820286 0
177.9800657 64.1170925 0
174.9270477 65.90800788 0
176.3774237 56.25216649 0
172.0011545 59.31557307 0
167.2606051 62.60162014 0
84.18747373 176.664281 0
87.14851751 176.3468464 0
53.03804369 186.8649211 0
57.87550324 181.0572472 0
185.17404 49.74072094 0
185.645678 53.635536 0
166.2767091 52.17080349 0
170.2954505 56.13710952 0
182.9394019 50.05363565 0
182.5762873 55.68929885 0
164.5480875 57.51717807 0
172.1823389 53.71114979 0
189.4202127 53.3591524 0
192.0052431 56.02940945 0
192.5129908 60.19275654 0
190.5843923 57.96854822 0
188.612478 51.23754319 0
180.2249631 59.36190901 0
58.48213002 167.5207848 0
51.65396435 164.2189456 0
53.24742493 173.3684471 0
60.95461195 182.4149889 0
48.79877993 187.3979296 0
55.46119177 186.0585749 0
60.93243219 187.0101399 0
50.59694743 181.5429398 0
49.14573003 190.6562032 0
46.94224274 188.2915455 0
51.4780056 184.9517168 0
54.77358768 191.4886368 0
70.13501853 178.6950902 0
63.8113121 180.1022137 0
77.86048027 175.8627223 0
73.25668977 178.5448888 0
76.22931547 180.6023225 0
79.21363635 174.0896623 0
68.70219622 175.2125996 0
54.15959806 177.8723269 0
53.05771527 167.4596969 0
62.17075485 164.1263512 0
173.3831535 83.49929302 0
176.1880238 81.37998205 0
174.0310509 87.88230391 0
172.5453572 88.63673621 0
179.7874605 78.84829485 0
179.7499094 83.59082896 0
88.2679403 175.1749842 0
87.58873056 177.9557432 0
160.8098592 52.44698208 0
167.0816052 55.34486408 0
59.22978219 164.1991834 0
52.41556514 156.9741665 0
83.53776653 182.1112844 0
87.04631325 184.0689478 0
52.80628053 175.8370031 0
68.61953053 185.9895853 0
184.067071 86.02219353 0
186.1537399 79.33593178 0
180.5638878 67.20940753 0
187.0112044 72.13556812 0
178.0633722 61.16507219 0
194.1330765 56.4707981 0
174.2886557 23.97693136 0
176.3769481 25.94759516 0
190.9338802 33.31336599 0
193.3312804 34.81719052 0
188.7856574 40.38802579 0
188.388262 34.82101428 0
170.5367602 62.16342931 0
176.138161 51.7841303 0
159.6896741 40.4608671 0
162.8918532 36.22815413 0
164.6979835 34.07917532 0
167.2686508 36.97171995 0
184.5519077 67.32831896 0
192.8337607 52.69044617 0
188.884976 47.84717936 0
188.0016236 57.41889497 0
189.7027211 49.60055004 0
187.3797718 45.35859961 0
188.2016852 42.01148144 0
192.2293098 41.61018802 0
196.6294842 37.092814 0
191.2239818 38.15880479 0
190.959725 40.12492445 0
192.9555559 37.35832811 0
60.94436489 174.347806 0
51.26635821 171.8388975 0
51.25910079 179.7193545 0
56.00268601 168.9366241 0
50.23363358 178.2454144 0
52.19635087 189.0154401 0
36.64245963 190.1731305 0
38.51489131 187.5236207 0
33.39586816 187.7950419 0
35.35897617 187.3027544 0
26.58005934 177.0516699 0
25.70708315 172.6538223 0
36.18687323 163.7715323 0
31.01647883 160.9745357 0
35.42989299 193.3301835 0
40.06960389 188.5307556 0
43.44501753 188.6293408 0
45.26113965 187.4381926 0
48.1330671 183.791811 0
51.61957229 192.5999859 0
57.40763961 193.1640981 0
53.07449603 190.9660443 0
88.44309556 170.5070288 0
90.40013978 169.6361494 0
84.53677712 172.1944441 0
81.1707041 178.8085265 0
66.47070771 169.5336721 0
70.37608529 173.2780799 0
63.05848585 166.7862667 0
59.20274391 158.1913897 0
57.54734108 161.6489706 0
68.78907055 169.4248177 0
68.06508415 156.682501 0
68.60822149 152.5574623 0
180.9821942 75.65257785 0
172.1389247 65.12586584 0
181.2559485 81.4204208 0
175.4005461 77.21702884 0
171.9445322 90.6481158 0
168.8458369 88.64108696 0
173.7082597 86.22613791 0
173.9052359 81.69886412 0
166.9817228 88.82682853 0
169.7132217 87.06769894 0
150.129912 72.41162643 0
152.2113289 70.65105861 0
156.5943138 67.70989464 0
154.6475313 63.79696541 0
158.9446761 61.32649186 0
164.7817012 60.74220648 0
170.2499701 67.42032039 0
164.4096836 66.13811289 0
171.8722845 84.24834274 0
177.0129877 86.87322161 0
170.3482395 95.86532494 0
166.4960184 90.95548417 0
182.2401295 86.5694532 0
176.2570785 85.06283362 0
85.45708251 175.5645658 0
86.36612469 179.2389719 0
87.5912603 173.4804767 0
89.81488528 175.5286644 0
92.44732639 166.5352707 0
93.36643692 171.2978038 0
87.04119905 180.9846693 0
88.60817667 172.273503 0
157.1690123 33.97098941 0
160.1410198 29.20735286 0
161.3387541 56.08713926 0
154.9803873 55.67347056 0
152.2181447 68.09570456 0
151.4232294 62.68326919 0
146.6198301 72.03753333 0
154.2263665 73.80858722 0
63.12775746 151.3408002 0
66.50387615 149.8253861 0
44.6796256 164.8689036 0
41.3437499 164.0899025 0
37.97355507 160.3629868 0
40.93522012 160.8637558 0
40.57371977 209.3341576 0
38.62318551 206.0290108 0
64.80927747 194.4253796 0
55.14711922 193.4982613 0
78.84211784 178.5298266 0
83.28293343 184.4500738 0
85.83814832 185.729245 0
88.8548416 184.2673203 0
74.00956854 175.4722227 0
73.03020268 187.6698487 0
92.18624075 164.4160906 0
90.45164283 162.1501053 0
85.15188474 149.1226491 0
79.86056502 148.3503018 0
160.022453 91.27400961 0
161.4166143 89.79311757 0
160.8733939 93.87611823 0
168.4427298 92.22882827 0
184.9452448 84.18485152 0
188.5552456 86.60590607 0
188.6391888 81.22807489 0
177.0846025 79.09817105 0
175.435164 69.06357774 0
194.4741044 67.33626457 0
167.1690046 28.58547244 0
171.8307423 25.58736903 0
177.9869215 30.51097912 0
172.6821019 28.07133556 0
183.1298886 33.26743402 0
181.6614129 32.32236721 0
94.60401463 167.4190217 0
88.93205123 166.6400487 0
34.71621088 191.592282 0
29.9443033 190.6641922 0
91.89711216 157.2225637 0
93.50489367 162.3029802 0
189.0540881 37.1253155 0
185.1008137 32.60195984 0
186.3907098 42.44469489 0
185.8612612 38.4788956 0
189.9836515 46.40997125 0
184.8901732 41.39582304 0
186.4167755 51.28418197 0
182.7247134 46.88229674 0
181.9420037 48.50162337 0
191.3921316 63.43759452 0
169.8172725 50.6468856 0
171.4307628 51.52479951 0
167.9477805 50.55714448 0
163.2142964 50.70296029 0
172.8955309 50.04474384 0
178.4537431 51.22810001 0
165.9623401 45.54900264 0
165.8109454 47.51707058 0
164.1761295 44.27772763 0
159.4588833 37.35070863 0
163.0966714 40.60777125 0
169.5152887 30.55498995 0
203.4086278 36.92545235 0
207.4500609 34.338668 0
198.3653415 56.7872357 0
202.0918384 59.03195994 0
187.2492956 47.18435015 0
194.6570021 53.29835462 0
186.133267 44.2839304 0
192.4960868 44.89235969 0
197.8420155 33.25719174 0
200.0236443 36.90856199 0
53.53651461 161.5148104 0
62.13315084 171.3557788 0
49.36966225 174.9005286 0
50.92600624 169.3663303 0
41.4913403 191.3618919 0
41.74503219 187.59101 0
50.75408924 176.300796 0
50.09090131 189.0068106 0
49.34419142 185.4933547 0
45.00286299 185.3210197 0
35.58500721 185.3361209 0
38.65706768 185.7534901 0
37.15210321 184.6431771 0
28.12360909 187.617533 0
24.49376875 175.5366544 0
30.18493929 176.5602841 0
24.2440228 169.3408624 0
30.96799634 170.3328041 0
34.41702985 158.0304135 0
30.15172726 167.9017584 0
42.97130482 165.0289286 0
48.66397649 164.2228494 0
42.24912961 166.7554365 0
40.20809518 165.2278781 0
57.79621489 201.459494 0
58.18629814 195.2752559 0
35.79275423 204.3809049 0
38.69932912 204.5041138 0
34.97701827 200.1722879 0
37.86635625 196.2406471 0
38.91102491 197.8329435 0
36.7838958 188.3799413 0
44.46793399 191.7214319 0
43.57005305 193.3530406 0
48.6494035 193.7825813 0
43.28633474 190.4351304 0
47.90695091 180.2848633 0
53.97736957 194.7980552 0
57.03410807 191.1544736 0
72.56178637 173.6879044 0
82.33583846 172.2961837 0
64.61821986 189.1389297 0
85.170784 170.1240929 0
90.41778816 172.6675715 0
48.68642194 168.6196481 0
65.95106116 163.3189783 0
64.1447605 160.098851 0
66.64166363 165.2559072 0
67.25559388 161.8104386 0
64.05367337 155.0006737 0
74.09960539 150.48128 0
79.66301234 141.1790234 0
85.66471611 141.308646 0
81.65542891 152.0151033 0
182.2684714 51.9032173 0
178.6866616 73.34194473 0
172.5172691 80.07485063 0
175.8078715 74.65651952 0
169.9537492 90.76696215 0
168.9496098 85.27751399 0
158.248693 90.18631661 0
160.5263051 88.17943663 0
165.6377284 95.96540622 0
163.9206793 87.87980591 0
156.3777472 86.56112855 0
152.4152098 86.73525907 0
145.4759429 75.46627173 0
149.8346832 76.28901735 0
147.0444245 83.88242988 0
155.1987788 83.53854531 0
158.314349 65.94093362 0
157.1900693 69.7472029 0
162.0540206 62.41316333 0
162.3649815 65.10602522 0
180.1754339 54.88605714 0
166.5823205 69.04905931 0
191.3815769 53.92248566 0
184.7990285 75.84745351 0
170.3934605 98.10141285 0
170.898641 102.0187112 0
174.5381772 84.94273057 0
178.5289174 70.29007918 0
176.2235113 90.1925775 0
173.2263209 92.08999259 0
180.4773797 85.78792902 0
185.1860996 87.86268189 0
87.36040757 187.7227584 0
91.4746424 185.602787 0
80.7954027 186.3368695 0
88.89281068 181.3115483 0
96.56164953 165.7285065 0
99.44587562 166.8394308 0
90.37295954 177.1592818 0
90.64510791 167.7818848 0
159.1032621 43.74122484 0
167.3440093 48.49662703 0
164.2370211 30.43809326 0
149.219008 27.40594087 0
149.4941859 65.6769445 0
156.5977704 51.67564443 0
150.8784147 74.76274621 0
145.9772882 67.85820546 0
142.3664619 83.25496176 0
147.9422934 77.36663597 0
73.58474439 146.9284094 0
71.05410985 155.0906975 0
67.77767012 158.531643 0
56.22494438 154.9307443 0
47.82814311 166.7169184 0
45.75542412 166.6556173 0
21.20522087 176.4594094 0
19.92142082 169.2361433 0
13.77093143 157.5967053 0
22.31963377 153.6255132 0
56.20768375 199.9186913 0
61.59541568 204.6742696 0
76.7805237 184.6315629 0
89.53490422 187.4183521 0
76.00055667 174.8625521 0
74.05001026 192.8460541 0
82.27146021 190.695555 0
91.077648 188.1307182 0
94.98589289 192.5972517 0
92.37522259 189.2703029 0
97.21276525 170.6839403 0
89.02306163 164.7843571 0
100.4874364 173.1782565 0
104.11207 171.5864036 0
[...]
POINT_DATA 1568
SCALARS GLOBAL_ID int 1
LOOKUP_TABLE default
-1 
-1 
-1 
-1 
-1 
-1 
-1 
-1 
-1 
-1 
-1 
-1 
-1 
-1 
-1 
-1 
-1 
-1 
-1 
-1 
-1 
-1 
-1 
-1 
-1 
-1 
-1 
-1 
-1 
-1 
-1 
-1 
-1 
-1 
-1 
-1 
-1 
-1 
-1 
-1 
-1 
-1 
-1 
-1 
-1 
-1 
-1 
-1 
-1 
-1 
-1 
-1 
-1 
-1 
-1 
-1 
-1 
-1 
-1 
-1 
-1 
-1 
-1 
-1 
-1 
-1 
-1 
-1 
-1 
-1 
-1 
-1 
-1 
-1 
-1 
-1 
-1 
-1 
-1 
-1 
-1 
-1 
-1 
-1 
-1 
-1 
-1 
-1 
-1 
-1 
-1 
-1 
-1 
-1 
-1 
-1 
-1 
-1 
-1 
-1 
-1 
-1 
-1 
-1 
-1 
-1 
-1 
-1 
-1 
-1 
-1 
-1 
-1 
-1 
-1 
-1 
-1 
-1 
-1 
-1 
-1 
-1 
-1 
-1 
-1 
-1 
-1 
-1 
-1 
-1 
-1 
-1 
-1 
-1 
-1 
-1 
-1 
-1 
-1 
-1 
-1 
-1 
-1 
-1 
-1 
-1 
-1 
-1 
-1 
-1 
-1 
-1 
-1 
-1 
-1 
-1 
-1 
-1 
-1 
-1 
-1 
-1 
-1 
-1 
-1 
-1 
-1 
-1 
-1 
-1 
-1 
-1 
-1 
-1 
-1 
-1 
-1 
-1 
-1 
-1 
-1 
-1 
-1 
-1 
-1 
-1 
-1 
-1 
-1 
-1 
-1 
-1 
-1 
-1 
-1 
-1 
-1 
-1 
-1 
-1 
-1 
-1 
-1 
-1 
-1 
-1 
-1 
-1 
-1 
-1 
-1 
-1 
-1 
-1 
-1 
-1 
-1 
-1 
-1 
-1 
-1 
-1 
-1 
-1 
-1 
-1 
-1 
-1 
-1 
-1 
-1 
-1 
-1 
-1 
-1 
-1 
-1 
-1 
-1 
-1 
-1 
-1 
-1 
-1 
-1 
-1 
-1 
-1 
-1 
-1 
-1 
-1 
-1 
-1 
-1 
-1 
-1 
-1 
-1 
-1 
-1 
-1 
-1 
-1 
-1 
-1 
-1 
-1 
-1 
-1 
-1 
-1 
-1 
-1 
-1 
-1 
-1 
-1 
-1 
-1 
-1 
-1 
-1 
-1 
-1 
-1 
-1 
-1 
-1 
-1 
-1 
-1 
-1 
-1 
-1 
-1 
-1 
-1 
-1 
-1 
-1 
-1 
-1 
-1 
-1 
-1 
-1 
-1 
-1 
-1 
-1 
-1 
-1 
-1 
-1 
-1 
-1 
-1 
-1 
-1 
-1 
-1 
-1 
-1 
-1 
-1 
-1 
-1 
-1 
-1 
-1 
-1 
-1 
-1 
-1 
-1 
-1 
-1 
-1 
-1 
-1 
-1 
-1 
-1 
-1 
-1 
-1 
-1 
-1 
-1 
-1 
-1 
-1 
-1 
-1 
-1 
-1 
-1 
-1 
-1 
-1 
-1 
-1 
-1 
-1 
-1 
-1 
-1 
-1 
-1 
-1 
-1 
-1 
-1 
-1 
-1 
-1 
-1 
-1 
-1 
-1 
-1 
-1 
-1 
-1 
-1 
-1 
-1 
-1 
-1 
-1 
-1 
-1 
-1 
-1 
-1 
-1 
-1 
-1 
-1 
-1 
-1 
-1 
-1 
-1 
-1 
-1 
-1 
-1 
-1 
-1 
-1 
-1 
-1 
-1 
-1 
-1 
-1 
-1 
-1 
-1 
-1 
-1 
-1 
-1 
-1 
-1 
-1 
-1 
-1 
-1 
-1 
-1 
-1 
-1 
-1 
-1 
-1 
-1 
-1 
-1 
-1 
-1 
-1 
-1 
-1 
-1 
-1 
-1 
-1 
-1 
-1 
-1 
-1 
-1 
-1 
-1 
-1 
-1 
-1 
-1 
-1 
-1 
-1 
-1 
-1 
-1 
-1 
-1 
-1 
-1 
-1 
-1 
-1 
-1 
-1 
-1 
-1 
-1 
-1 
-1 
-1 
-1 
-1 
-1 
-1 
-1 
-1 
-1 
-1 
-1 
-1 
-1 
-1 
-1 
-1 
-1 
-1 
-1 
-1 
-1 
-1 
-1 
-1 
-1 
-1 
-1 
-1 
-1 
-1 
-1 
-1 
-1 
-1 
-1 
-1 
-1 
-1 
-1 
-1 
-1 
-1 
-1 
-1 
-1 
-1 
-1 
-1 
-1 
-1 
-1 
-1 
-1 
-1 
-1 
-1 
-1 
-1 
-1 
-1 
-1 
-1 
-1 
-1 
-1 
-1 
-1 
-1 
-1 
-1 
-1 
-1 
-1 
-1 
-1 
-1 
-1 
-1 
-1 
-1 
-1 
-1 
-1 
-1 
-1 
-1 
-1 
-1 
-1 
-1 
-1 
-1 
-1 
-1 
-1 
-1 
-1 
-1 
-1 
-1 
-1 
-1 
-1 
-1 
-1 
-1 
-1 
-1 
-1 
-1 
-1 
-1 
-1 
-1 
-1 
-1 
-1 
-1 
-1 
-1 
-1 
-1 
-1 
-1 
-1 
-1 
-1 
-1 
-1 
-1 
-1 
-1 
-1 
-1 
-1 
-1 
-1 
-1 
-1 
-1 
-1 
-1 
-1 
-1 
-1 
-1 
-1 
-1 
-1 
-1 
-1 
-1 
-1 
-1 
-1 
-1 
-1 
-1 
-1 
-1 
-1 
-1 
-1 
-1 
-1 
-1 
-1 
-1 
-1 
-1 
-1 
-1 
-1 
-1 
-1 
-1 
-1 
-1 
-1 
-1 
-1 
-1 
-1 
-1 
-1 
-1 
-1 
-1 
-1 
-1 
-1 
-1 
-1 
-1 
-1 
-1 
-1 
-1 
-1 
-1 
-1 
-1 
-1 
-1 
-1 
-1 
-1 
-1 
-1 
-1 
-1 
-1 
-1 
-1 
-1 
-1 
-1 
-1 
-1 
-1 
-1 
-1 
-1 
-1 
-1 
-1 
-1 
-1 
-1 
-1 
-1 
-1 
-1 
-1 
-1 
-1 
-1 
-1 
-1 
-1 
-1 
-1 
-1 
-1 
-1 
-1 
-1 
-1 
-1 
-1 
-1 
-1 
-1 
-1 
-1 
-1 
-1 
-1 
-1 
-1 
-1 
-1 
-1 
-1 
-1 
-1 
-1 
-1 
-1 
-1 
-1 
-1 
-1 
-1 
-1 
-1 
-1 
-1 
-1 
-1 
-1 
-1 
-1 
-1 
-1 
-1 
-1 
-1 
-1 
-1 
-1 
-1 
-1 
-1 
-1 
-1 
-1 
-1 
-1 
-1 
-1 
-1 
-1 
-1 
-1 
-1 
-1 
-1 
-1 
-1 
-1 
-1 
-1 
-1 
-1 
-1 
-1 
-1 
-1 
-1 
-1 
-1 
-1 
-1 
-1 
-1 
-1 
-1 
-1 
-1 
-1 
-1 
-1 
-1 
-1 
-1 
-1 
-1 
-1 
-1 
-1 
-1 
-1 
-1 
-1 
-1 
-1 
-1 
-1 
-1 
-1 
-1 
-1 
-1 
-1 
-1 
-1 
-1 
-1 
-1 
-1 
-1 
-1 
-1 
-1 
-1 
-1 
-1 
-1 
-1 
-1 
-1 
-1 
-1 
-1 
-1 
-1 
-1 
-1 
-1 
-1 
-1 
-1 
-1 
-1 
-1 
-1 
-1 
-1 
-1 
-1 
-1 
-1 
-1 
-1 
-1 
-1 
-1 
-1 
-1 
-1 
-1 
-1 
-1 
-1 
-1 
-1 
-1 
-1 
-1 
-1 
-1 
-1 
-1 
-1 
-1 
-1 
-1 
-1 
-1 
-1 
-1 
-1 
-1 
-1 
-1 
-1 
-1 
-1 
-1 
-1 
-1 
-1 
-1 
-1 
-1 
-1 
-1 
-1 
-1 
-1 
-1 
-1 
-1 
-1 
-1 
-1 
-1 
-1 
-1 
-1 
-1 
-1 
-1 
-1 
-1 
-1 
-1 
-1 
-1 
-1 
-1 
-1 
-1 
-1 
-1 
-1 
-1 
-1 
-1 
-1 
-1 
-1 
-1 
-1 
-1 
-1 
-1 
-1 
-1 
-1 
-1 
-1 
-1 
-1 
-1 
-1 
-1 
-1 
-1 
-1 
-1 
-1 
-1 
-1 
-1 
-1 
-1 
-1 
-1 
-1 
-1 
-1 
-1 
-1 
-1 
-1 
-1 
-1 
-1 
-1 
-1 
-1 
-1 
-1 
-1 
-1 
-1 
-1 
-1 
-1 
-1 
-1 
-1 
-1 
-1 
-1 
-1 
-1 
-1 
-1 
-1 
-1 
-1 
-1 
-1 
-1 
-1 
-1 
-1 
-1 
-1 
-1 
-1 
-1 
-1 
-1 
-1 
-1 
-1 
-1 
-1 
-1 
-1 
-1 
-1 
-1 
-1 
-1 
-1 
-1 
-1 
-1 
-1 
-1 
-1 
-1 
-1 
-1 
-1 
-1 
-1 
-1 
-1 
-1 
-1 
-1 
-1 
-1 
-1 
-1 
-1 
-1 
-1 
-1 
-1 
-1 
-1 
-1 
-1 
-1 
-1 
-1 
-1 
-1 
-1 
-1 
-1 
-1 
-1 
-1 
-1 
-1 
-1 
-1 
-1 
-1 
-1 
-1 
-1 
-1 
-1 
-1 
-1 
-1 
-1 
-1 
-1 
-1 
-1 
-1 
-1 
-1 
-1 
-1 
-1 
-1 
-1 
-1 
-1 
-1 
-1 
-1 
-1 
-1 
-1 
-1 
-1 
-1 
-1 
-1 
-1 
-1 
-1 
-1 
-1 
-1 
-1 
-1 
-1 
-1 
-1 
-1 
-1 
-1 
-1 
-1 
-1 
-1 
-1 
-1 
-1 
-1 
-1 
-1 
-1 
-1 
-1 
-1 
-1 
-1 
-1 
-1 
-1 
-1 
-1 
-1 
-1 
-1 
-1 
-1 
-1 
-1 
-1 
-1 
-1 
-1 
-1 
-1 
-1 
-1 
-1 
-1 
-1 
-1 
-1 
-1 
-1 
-1 
-1 
-1 
-1 
-1 
-1 
-1 
-1 
-1 
-1 
-1 
-1 
-1 
-1 
-1 
-1 
-1 
-1 
-1 
-1 
-1 
-1 
-1 
-1 
-1 
-1 
-1 
-1 
-1 
-1 
-1 
-1 
-1 
-1 
-1 
-1 
-1 
-1 
-1 
-1 
-1 
-1 
-1 
-1 
-1 
-1 
-1 
-1 
-1 
-1 
-1 
-1 
-1 
-1 
-1 
-1 
-1 
-1 
-1 
-1 
-1 
-1 
-1 
-1 
-1 
-1 
-1 
-1 
-1 
-1 
-1 
-1 
-1 
-1 
-1 
-1 
-1 
-1 
-1 
-1 
-1 
-1 
-1 
-1 
-1 
-1 
-1 
-1 
-1 
-1 
-1 
-1 
-1 
-1 
-1 
-1 
-1 
-1 
-1 
-1 
-1 
-1 
-1 
-1 
-1 
-1 
-1 
-1 
-1 
-1 
-1 
-1 
-1 
-1 
-1 
-1 
-1 
-1 
-1 
-1 
-1 
-1 
-1 
-1 
-1 
-1 
-1 
-1 
-1 
-1 
-1 
-1 
-1 
-1 
-1 
-1 
-1 
-1 
-1 
-1 
-1 
-1 
-1 
-1 
-1 
-1 
-1 
-1 
-1 
-1 
-1 
-1 
-1 
-1 
-1 
-1 
-1 
-1 
-1 
-1 
-1 
-1 
-1 
-1 
-1 
-1 
-1 
-1 
-1 
-1 
-1 
-1 
-1 
-1 
-1 
-1 
-1 
-1 
-1 
-1 
-1 
-1 
-1 
-1 
-1 
-1 
-1 
-1 
-1 
-1 
-1 
-1 
-1 
-1 
-1 
-1 
-1 
-1 
-1 
-1 
-1 
-1 
-1 
-1 
-1 
-1 
-1 
-1 
-1 
-1 
-1 
-1 
-1 
-1 
-1 
-1 
-1 
-1 
-1 
-1 
-1 
-1 
-1 
-1 
-1 
-1 
-1 
-1 
-1 
-1 
-1 
-1 
-1 
-1 
-1 
-1 
-1 
-1 
-1 
-1 
-1 
-1 
-1 
-1 
-1 
-1 
-1 
-1 
-1 
-1 
-1 
-1 
-1 
-1 
-1 
-1 
-1 
-1 
-1 
-1 
-1 
-1 
-1 
-1 
-1 
-1 
-1 
-1 
-1 
-1 
-1 
-1 
-1 
-1 
-1 
-1 
-1 
-1 
-1 
-1 
-1 
-1 
-1 
-1 
-1 
-1 
-1 
-1 
-1 
-1 
-1 
-1 
-1 
-1 
-1 
-1 
-1 
-1 
-1 
-1 
-1 
-1 
-1 
-1 
-1 
-1 
-1 
-1 
-1 
-1 
-1 
-1 
-1 
-1 
-1 
-1 
-1 
-1 
-1 
-1 
-1 
-1 
-1 
-1 
-1 
-1 
-1 
-1 
-1 
-1 
-1 
-1 
-1 
-1 
-1 
-1 
-1 
-1 
-1 
-1 
-1 
-1 
-1 
-1 
-1 
-1 
-1 
-1 
-1 
-1 
-1 
-1 
-1 
-1 
-1 
-1 
-1 
-1 
-1 
-1 
-1 
-1 
-1 
-1 
-1 
-1 
-1 
-1 
-1 
-1 
-1 
-1 
-1 
-1 
-1 
-1 
-1 
-1 
-1 
-1 
-1 
-1 
-1 
-1 
-1 
-1 
-1 
-1 
-1 
-1 
VECTORS G_average double
-1.799887096 -3.154049108 0 
-1.737964178 -3.085829379 0 
-3.815307944 -0.7418055792 0 
-3.81336552 -0.9962237308 0 
-4.32092666 -1.068147945 0 
-4.01418656 -0.6887844844 0 
-3.98671681 -1.031355458 0 
-4.455462351 -1.309619021 0 
-1.407573302 -4.753453317 0 
-1.576367827 -4.67322965 0 
-0.8090143395 -4.096342221 0 
-0.7375435714 -4.506397452 0 
-0.5047414476 -4.154131133 0 
-0.7083209629 -4.224844294 0 
-1.273949824 -4.519115427 0 
-1.468947682 -4.141230166 0 
-3.650533519 -1.102785561 0 
-4.085212508 -1.423893354 0 
-4.181825769 -1.631594089 0 
-4.564735192 -1.219768091 0 
-4.588349818 -1.492600869 0 
-4.649443245 -1.706361042 0 
-1.761041188 -3.093342524 0 
-1.716748985 -3.073522036 0 
-0.6072951086 -3.827351599 0 
-1.037958817 -4.105545093 0 
-3.888285425 -0.3846617412 0 
-3.937170885 -0.6535617368 0 
-4.917660868 -1.636043858 0 
-4.689828639 -1.420321375 0 
-4.156802283 -0.3238555603 0 
-4.112311368 -0.8337827221 0 
-4.886247847 -1.664015279 0 
-4.760145974 -1.381658535 0 
-3.648462465 -0.7143084079 0 
-3.560490897 -0.7887444018 0 
-3.573157145 -0.8662714926 0 
-3.68313875 -0.8179417886 0 
-3.642767471 -0.5205183423 0 
-4.207324086 -1.064576958 0 
-1.568169352 -4.73098243 0 
-1.598826987 -4.96150771 0 
-1.248195923 -4.903322648 0 
-1.084167412 -4.011823217 0 
-0.3411107325 -3.680389396 0 
-0.785561454 -3.922908171 0 
-1.000008014 -3.75185996 0 
-0.4198817283 -4.354105423 0 
-0.4176622481 -3.40787311 0 
-0.2667778598 -3.641511591 0 
-0.4905717889 -3.978537119 0 
-0.6976591925 -3.636236945 0 
-1.619945144 -3.753464914 0 
-1.333086069 -3.954404592 0 
-1.890404493 -3.34247168 0 
-1.66953644 -3.619779589 0 
-1.664947853 -3.458434 0 
-2.044964937 -3.159437653 0 
-1.717398838 -4.108537539 0 
-0.960966597 -4.60822566 0 
-1.61173265 -4.936298778 0 
-1.634614109 -4.880774182 0 
-3.003465022 -1.785254866 0 
-3.18905393 -1.849636627 0 
-3.032341664 -1.759959516 0 
-3.094199554 -1.790672653 0 
-3.174666784 -1.682860372 0 
-3.043370777 -1.717404175 0 
-1.7548541 -2.967771684 0 
-1.563198707 -2.98001635 0 
-4.928841123 -1.594871926 0 
-4.896638317 -1.643884192 0 
-1.620899918 -4.901489247 0 
-1.576825526 -5.123030795 0 
-1.652333984 -3.159572781 0 
-1.613274624 -3.156995465 0 
-1.022229047 -4.834177093 0 
-1.249308047 -3.587904296 0 
-3.153992581 -1.637865081 0 
-3.259003632 -1.45969923 0 
-3.874421207 -1.403007876 0 
-3.381640267 -1.348332993 0 
-4.147840919 -1.30358766 0 
-3.581729389 -0.8310420801 0 
-5.481721592 -0.5934807708 0 
-5.465400869 -0.5872438371 0 
-4.450726668 -0.10131099 0 
-4.300884797 0.1106226731 0 
-3.771372924 -0.2773712739 0 
-4.528134795 -0.369349318 0 
-4.617342295 -1.601657355 0 
-4.88207533 -0.9990328491 0 
-5.092884768 -1.221101531 0 
-4.964133199 -0.8545059301 0 
-5.019619353 -0.6713316859 0 
-4.536697446 -0.4935999813 0 
-3.663891006 -1.27090285 0 
-3.464128392 -0.7617864726 0 
-3.611698056 -0.3009918633 0 
-3.731915989 -0.7982020638 0 
-3.492741794 -0.458660361 0 
-3.670062234 -0.1732671605 0 
-3.686981882 -0.1923699339 0 
-3.638370908 0.07343718369 0 
-4.190505257 0.451687408 0 
-3.944707696 -0.06823114872 0 
-3.731267808 0.08218135417 0 
-4.091516375 0.1062300836 0 
-1.442805773 -4.36275121 0 
-1.487764189 -4.999250562 0 
-0.5726033881 -4.633788255 0 
-1.51937875 -4.719114552 0 
-0.5809101608 -4.914921276 0 
-0.5669537561 -3.620083162 0 
-0.2042724084 -4.12276376 0 
-0.4503669162 -3.95363665 0 
-0.4357793819 -4.609825972 0 
-0.5289415405 -4.380347856 0 
-0.6025995669 -5.467340901 0 
-0.5412195346 -5.440907538 0 
-0.7488726658 -4.953719161 0 
-0.7486005351 -5.352656299 0 
0.1672649342 -4.232462025 0 
-0.3145602873 -3.774270856 0 
-0.2306301216 -3.63328718 0 
-0.1678791845 -3.662180293 0 
-0.1158080124 -4.0309109 0 
-0.7313462293 -3.386630884 0 
-0.7837662521 -3.626792954 0 
-0.6865293413 -3.615379842 0 
-1.833920268 -3.184509989 0 
-2.03618379 -3.37361101 0 
-1.729898568 -2.989967358 0 
-1.698612329 -3.191188294 0 
-1.779874824 -4.482580703 0 
-1.907299599 -4.027006028 0 
-1.575628315 -4.719077827 0 
-1.731696692 -4.994858798 0 
-1.648333639 -4.940676736 0 
-1.949491395 -4.535598313 0 
-1.640115926 -4.677779712 0 
-1.79993905 -4.698398879 0 
-3.427738591 -1.60275303 0 
-4.363129298 -1.634253659 0 
-3.139090013 -1.668264104 0 
-3.414760821 -2.011258712 0 
-3.069788992 -2.024726855 0 
-3.390384575 -1.824898944 0 
-3.047637977 -1.77621299 0 
-3.063307329 -1.835874878 0 
-3.680088833 -1.843922937 0 
-3.298334229 -1.630290885 0 
-4.54330448 -2.061310858 0 
-4.503804821 -1.891787767 0 
-4.78205863 -1.665350543 0 
-4.910472553 -1.821342615 0 
-4.899150343 -1.711826127 0 
-4.755273494 -1.586809309 0 
-4.495713075 -1.87363223 0 
-4.856906698 -1.72264287 0 
-2.94255988 -1.714050244 0 
-3.050146209 -1.654342771 0 
-2.904014207 -2.607415429 0 
-3.729585645 -2.276734548 0 
-3.16487531 -1.631703852 0 
-3.10764087 -1.743999057 0 
-1.772823824 -3.056739501 0 
-1.654824598 -3.076422773 0 
-1.782028984 -3.075784978 0 
-1.697346711 -2.83480567 0 
-2.367746676 -3.595257635 0 
-2.230942271 -2.948721277 0 
-1.591637961 -3.064119875 0 
-1.866295304 -3.065832909 0 
-5.498299476 -0.9732576346 0 
-5.444436174 -0.8193972692 0 
-4.909835123 -1.651707846 0 
-5.03003529 -1.700666523 0 
-4.757363476 -1.880015545 0 
-5.020972322 -1.820738995 0 
-4.858565903 -2.308496742 0 
-4.106437507 -1.757438091 0 
-1.891550042 -5.074691758 0 
-1.959111894 -5.052111022 0 
-1.405369991 -4.790241685 0 
-1.158162343 -4.655992162 0 
-1.031759818 -5.046006549 0 
-1.077527903 -4.967964798 0 
-0.1025357208 -3.184442435 0 
-0.1070430056 -3.883330158 0 
-0.9037608571 -3.354513558 0 
-0.7836551636 -3.527865647 0 
-1.844844835 -3.297246807 0 
-1.581212353 -3.102430423 0 
-1.645966351 -3.052100839 0 
-1.725113536 -3.13462933 0 
-1.973498601 -3.640130612 0 
-1.31449535 -3.392029987 0 
-2.550246084 -3.909361428 0 
-2.569810646 -4.321830511 0 
-2.901840102 -4.692967 0 
-2.651171045 -4.4373419 0 
-4.500629466 -2.878824616 0 
-4.504915917 -2.553971743 0 
-4.28029995 -2.975166802 0 
-3.304898305 -2.30827894 0 
-3.121756696 -1.652318752 0 
-2.90999602 -1.599791575 0 
-3.018526559 -1.400544638 0 
-3.341436678 -1.808319385 0 
-3.908097654 -1.774244493 0 
-3.282375646 -0.9118900873 0 
-5.359932278 -0.5412934425 0 
-5.481111318 -0.5288303654 0 
-5.621775121 -0.6474925407 0 
-5.490173519 -0.4062595246 0 
-4.98100574 -0.9796148612 0 
-5.223734908 -0.9860580619 0 
-2.623836213 -3.316085114 0 
-1.781696976 -3.68704134 0 
0.03258426186 -4.294839988 0 
-0.07541071561 -4.707263639 0 
-3.083084097 -4.566784333 0 
-2.895349512 -4.105735811 0 
-4.210366454 -0.3158791957 0 
-4.805275651 -0.6844285228 0 
-3.585956416 -0.2337671412 0 
-3.898768008 -0.6974429831 0 
-3.443216311 -0.2943053312 0 
-3.40018127 -0.3774268096 0 
-3.8405302 -0.5310172337 0 
-4.046845109 0.09619181127 0 
-4.309597865 -0.1162719731 0 
-3.520161975 -0.960347297 0 
-4.982595333 -1.566386251 0 
-4.957401452 -1.496466115 0 
-4.985243871 -1.648253348 0 
-4.873929512 -1.628361593 0 
-5.14095055 -1.466110561 0 
-4.749493754 -0.7148963301 0 
-4.675758304 -1.515116811 0 
-4.828263321 -1.619816345 0 
-4.712005722 -1.411862692 0 
-5.224207414 -1.005978547 0 
-4.77677367 -1.14787979 0 
-5.317763337 -0.3172156681 0 
-4.215873106 0.2468534927 0 
-3.779222508 0.4917095474 0 
-3.68450145 -0.740594421 0 
-3.51049377 -0.4234216338 0 
-3.688398687 -0.2448096001 0 
-3.491257458 -0.863793661 0 
-3.610431322 -0.1292689037 0 
-3.245549525 -0.05679323676 0 
-4.372973377 0.4153100292 0 
-4.318689203 0.4090080491 0 
-1.62838046 -4.98015979 0 
-1.538439824 -4.507585601 0 
-1.181338127 -5.398160704 0 
-1.578751622 -4.929280078 0 
0.02841577392 -3.619261739 0 
-0.2356602163 -3.682106579 0 
-0.9104220553 -5.052737668 0 
-0.4643574013 -3.641077445 0 
-0.2906885454 -3.938368237 0 
-0.1057569878 -3.596077998 0 
-0.8299895605 -4.339044127 0 
-0.6105603501 -3.777123163 0 
-0.995500223 -4.072556768 0 
-0.3213211785 -5.102984094 0 
-0.5464199861 -5.399311377 0 
-0.4742090242 -5.659826304 0 
-0.510528098 -5.415631087 0 
-0.1907070873 -5.355964947 0 
-0.9676527253 -5.266454279 0 
-0.3955816262 -5.298954283 0 
-1.366102197 -4.647034341 0 
-1.628079201 -4.922007247 0 
-1.352976448 -4.399617817 0 
-1.052784704 -4.576689695 0 
-0.4233157948 -3.566219973 0 
-0.7603093954 -3.616322951 0 
0.3149399277 -4.021048596 0 
-0.06529646226 -4.108100152 0 
0.4702037938 -4.286273416 0 
0.4293643457 -4.13555986 0 
0.5782628456 -4.195931149 0 
-0.3322961901 -4.210289854 0 
-0.05084111818 -3.342697921 0 
0.1687808085 -3.338324838 0 
-0.620095032 -3.069534938 0 
-0.1269188682 -3.539069579 0 
0.1154981811 -4.672800743 0 
-0.8908560079 -3.50234858 0 
-0.7907503503 -3.527029745 0 
-2.090970216 -3.866904341 0 
-1.85524648 -2.921350584 0 
-1.019363616 -3.525741483 0 
-1.542191275 -3.040294001 0 
-1.890818783 -2.975797631 0 
-1.757103912 -5.011817211 0 
-1.644741892 -4.850030914 0 
-1.67091303 -4.925029174 0 
-1.690766763 -4.806377863 0 
-1.640551857 -4.884957725 0 
-1.801907841 -4.926712168 0 
-2.214613993 -4.311715336 0 
-2.670134918 -4.855542352 0 
-2.779999641 -4.908553739 0 
-2.966442913 -4.271530471 0 
-4.21522705 -0.5550728754 0 
-3.567538941 -1.733716238 0 
-3.00749559 -2.123397638 0 
-3.631605834 -1.872397623 0 
-3.308951402 -2.040032112 0 
-3.095472554 -1.436398196 0 
-4.574852792 -2.904981278 0 
-4.7922096 -2.637327693 0 
-3.562490895 -2.848960549 0 
-4.44949084 -1.839725691 0 
-4.790157475 -3.128166085 0 
-4.681339081 -3.035943403 0 
-4.793847393 -2.494677671 0 
-4.368898137 -2.450294276 0 
-4.776361373 -2.729325486 0 
-4.489728529 -3.461803382 0 
-4.890805738 -1.668185967 0 
-4.70584768 -1.513409837 0 
-4.894431802 -1.65568599 0 
-4.906675023 -1.678962442 0 
-4.345956494 -0.8971230265 0 
-4.857217342 -1.901129201 0 
-3.576846377 -0.7527935758 0 
-3.369390726 -1.495738778 0 
-2.828931251 -2.903211961 0 
-2.647524599 -3.211258747 0 
-3.081240221 -1.78747555 0 
-3.765755308 -1.644917508 0 
-2.822321652 -1.640959869 0 
-2.79488782 -1.993751073 0 
-3.095937049 -1.64174524 0 
-3.124046886 -1.678095484 0 
-1.684519494 -2.993709463 0 
-1.855285939 -3.359210372 0 
-1.497222836 -3.113195337 0 
-1.543042191 -3.083914469 0 
-2.91571218 -3.446059988 0 
-3.137086743 -3.176070221 0 
-1.625237007 -2.845273795 0 
-2.142773401 -3.447366584 0 
-5.095931849 -1.357872353 0 
-4.88862097 -1.691129429 0 
-5.256270001 -0.62767844 0 
-6.030478752 -0.8881830053 0 
-5.01689394 -2.000190469 0 
-5.078967656 -1.643137477 0 
-4.378973217 -2.226960595 0 
-4.990579984 -2.163633193 0 
-4.926284927 -2.732411697 0 
-4.565507664 -2.470286856 0 
-2.290175854 -4.832718517 0 
-1.626062777 -4.471426794 0 
-1.578907179 -4.865807956 0 
-1.763681067 -5.06999745 0 
-1.686940214 -4.862247812 0 
-1.651417129 -4.776884959 0 
-0.6549218619 -5.31825095 0 
-0.5832227219 -5.385273402 0 
-0.4708680738 -5.907266826 0 
-0.748437314 -5.879879078 0 
-0.5690016056 -3.731479803 0 
-0.3940209276 -3.156547433 0 
-1.503998081 -3.313865459 0 
-1.812254935 -2.999189074 0 
-1.987227561 -3.460825675 0 
-1.182065937 -3.033435047 0 
-1.456840858 -3.067202785 0 
-1.974900789 -2.937140271 0 
-1.958511679 -2.293368376 0 
-2.036835731 -2.854053731 0 
-2.777981154 -2.793771696 0 
-2.114897774 -4.194009277 0 
-3.130230673 -2.493504659 0 
-3.274690137 -2.570051347 0 
-2.837901472 -4.98151667 0 
-3.040329725 -4.739703543 0 
-4.884667112 -2.950655061 0 
-4.372150952 -3.269728877 0 
-3.244141156 -3.193345611 0 
-3.800467917 -2.738460742 0 
-3.342522062 -2.01933431 0 
-2.652274093 -2.507797627 0 
-2.082414958 -2.958456755 0 
-2.39415086 -3.002186606 0 
-2.810662706 -1.647773215 0 
-2.852151367 -1.900338445 0 
-3.006307489 -1.610576056 0 
-4.071946764 -1.955736931 0 
-4.360895447 -1.918307503 0 
-3.530205855 -0.710451869 0 
-3.624341426 0.1880595728 0 
-4.139065414 0.7235715575 0 
-5.417651329 -0.6453530309 0 
-5.402808285 -0.6321662415 0 
-5.418192106 -0.3215628077 0 
-5.35024288 -0.5790816913 0 
-5.696653784 -0.231263977 0 
-5.451349629 -0.5245047041 0 
-5.628986668 -0.4340550321 0 
-5.262085162 -0.7471221176 0 
-4.334980126 -0.9549282445 0 
-5.028507051 -0.6476888151 0 
-2.154258186 -2.620707118 0 
-1.657844913 -3.563616196 0 
-2.731656379 -4.680026743 0 
-2.984509477 -3.932559557 0 
-2.901962863 -4.514822117 0 
-2.479302392 -4.633396289 0 
-0.613689086 -5.36928154 0 
-0.6131941673 -5.196580075 0 
0.2875614135 -3.961996846 0 
0.3894786242 -4.539263553 0 
-0.6674758232 -5.351368077 0 
-0.630880391 -5.460023923 0 
-3.063514197 -4.688675202 0 
-3.184044449 -4.662676669 0 
-4.942899255 -2.544894955 0 
-4.989090789 -2.883787152 0 
-4.347699727 0.3282812568 0 
-4.822562957 0.2416364279 0 
-5.396093283 -0.616359155 0 
-5.375362488 -0.383138186 0 
-3.464695691 -0.05862357217 0 
-4.061565537 -0.8891725794 0 
-3.754408019 -0.1762972287 0 
-3.59734686 -0.03151244872 0 
-3.768899766 -0.05937429899 0 
-3.344380169 -0.5306636497 0 
-4.557635031 0.6201373732 0 
-4.759906732 -1.181486517 0 
-4.932938086 -1.756069611 0 
-4.679799558 -1.770771454 0 
-5.096500849 -1.888929634 0 
-5.194436592 -1.161091329 0 
-5.176485346 -1.843676724 0 
-5.212651057 -1.573643952 0 
-4.753777285 -1.978045478 0 
-4.705353704 -1.256391587 0 
-4.246808505 -1.671664656 0 
-4.823232054 -0.4467801868 0 
-5.165632115 -0.1807654331 0 
-4.642466521 0.1103564758 0 
-5.523556594 -0.5144017765 0 
-5.523273547 -0.4636417485 0 
-4.013199278 0.5315167104 0 
-4.423634877 0.3226375684 0 
-4.265671994 0.4686692557 0 
-3.342088841 0.1081510816 0 
-2.597787999 -0.7967988135 0 
-3.166535778 -0.5994048631 0 
-2.970665754 0.5013349711 0 
-2.501927442 0.5949733311 0 
-2.963837959 -1.230343042 0 
-3.612920773 -0.8437893731 0 
-3.123879414 0.7961776968 0 
-3.139985566 0.366623104 0 
-3.308731658 -0.194430847 0 
-3.441670561 -0.6663666074 0 