# vtk DataFile Version 3.0
MOAB 5.5.0
ASCII
DATASET UNSTRUCTURED_GRID
POINTS 1568 double
82.25230654 176.2924732 0
84.65630287 178.7297902 0
187.4611102 54.91642295 0
185.4119627 59.76371164 0
178.8349382 56.44359545 0
183.7320119 53.94165662 0
182.6677669 58.63834954 0
175.2243617 59.09558184 0
55.85204371 172.3728071 0
61.22671107 168.9007018 0
55.61257357 183.0992033 0
53.13287398 179.8100599 0
51.90568942 182.9749789 0
53.61710931 181.9288116 0
58.1580643 174.9181587 0
63.50996504 176.5377358 0
186.8738722 63.55820286 0
177.9800657 64.1170925 0
174.9270477 65.90800788 0
176.3774237 56.25216649 0
172.0011545 59.31557307 0
167.2606051 62.60162014 0
84.18747373 176.664281 0
87.14851751 176.3468464 0
53.03804369 186.8649211 0
57.87550324 181.0572472 0
185.17404 49.74072094 0
185.645678 53.635536 0
166.2767091 52.17080349 0
170.2954505 56.13710952 0
182.9394019 50.05363565 0
182.5762873 55.68929885 0
164.5480875 57.51717807 0
172.1823389 53.71114979 0
189.4202127 53.3591524 0
192.0052431 56.02940945 0
192.5129908 60.19275654 0
190.5843923 57.96854822 0
188.612478 51.23754319 0
180.2249631 59.36190901 0
58.48213002 167.5207848 0
51.65396435 164.2189456 0
53.24742493 173.3684471 0
60.95461195 182.4149889 0
48.79877993 187.3979296 0
55.46119177 186.0585749 0
60.93243219 187.0101399 0
50.59694743 181.5429398 0
49.14573003 190.6562032 0
46.94224274 188.2915455 0
51.4780056 184.9517168 0
54.77358768 191.4886368 0
70.13501853 178.6950902 0
63.8113121 180.1022137 0
77.86048027 175.8627223 0
73.25668977 178.5448888 0
76.22931547 180.6023225 0
79.21363635 174.0896623 0
68.70219622 175.2125996 0
54.15959806 177.8723269 0
53.05771527 167.4596969 0
62.17075485 164.1263512 0
173.3831535 83.49929302 0
176.1880238 81.37998205 0
174.0310509 87.88230391 0
172.5453572 88.63673621 0
179.7874605 78.84829485 0
179.7499094 83.59082896 0
88.2679403 175.1749842 0
87.58873056 177.9557432 0
160.8098592 52.44698208 0
167.0816052 55.34486408 0
59.22978219 164.1991834 0
52.41556514 156.9741665 0
83.53776653 182.1112844 0
87.04631325 184.0689478 0
52.80628053 175.8370031 0
68.61953053 185.9895853 0
184.067071 86.02219353 0
186.1537399 79.33593178 0
180.5638878 67.20940753 0
187.0112044 72.13556812 0
178.0633722 61.16507219 0
194.1330765 56.4707981 0
174.2886557 23.97693136 0
176.3769481 25.94759516 0
190.9338802 33.31336599 0
193.3312804 34.81719052 0
188.7856574 40.38802579 0
188.388262 34.82101428 0
170.5367602 62.16342931 0
176.138161 51.7841303 0
159.6896741 40.4608671 0
162.8918532 36.22815413 0
164.6979835 34.07917532 0
167.2686508 36.97171995 0
184.5519077 67.32831896 0
192.8337607 52.69044617 0
188.884976 47.84717936 0
188.0016236 57.41889497 0
189.7027211 49.60055004 0
187.3797718 45.35859961 0
188.2016852 42.01148144 0
192.2293098 41.61018802 0
196.6294842 37.092814 0
191.2239818 38.15880479 0
190.959725 40.12492445 0
192.9555559 37.35832811 0
60.94436489 174.347806 0
51.26635821 171.8388975 0
51.25910079 179.7193545 0
56.00268601 168.9366241 0
50.23363358 178.2454144 0
52.19635087 189.0154401 0
36.64245963 190.1731305 0
38.51489131 187.5236207 0
33.39586816 187.7950419 0
35.35897617 187.3027544 0
26.58005934 177.0516699 0
25.70708315 172.6538223 0
36.18687323 163.7715323 0
31.01647883 160.9745357 0
35.42989299 193.3301835 0
40.06960389 188.5307556 0
43.44501753 188.6293408 0
45.26113965 187.4381926 0
48.1330671 183.791811 0
51.61957229 192.5999859 0
57.40763961 193.1640981 0
53.07449603 190.9660443 0
88.44309556 170.5070288 0
90.40013978 169.6361494 0
84.53677712 172.1944441 0
81.1707041 178.8085265 0
66.47070771 169.5336721 0
70.37608529 173.2780799 0
63.05848585 166.7862667 0
59.20274391 158.1913897 0
57.54734108 161.6489706 0
68.78907055 169.4248177 0
68.06508415 156.682501 0
68.60822149 152.5574623 0
180.9821942 75.65257785 0
172.1389247 65.12586584 0
181.2559485 81.4204208 0
175.4005461 77.21702884 0
171.9445322 90.6481158 0
168.8458369 88.64108696 0
173.7082597 86.22613791 0
173.9052359 81.69886412 0
166.9817228 88.82682853 0
169.7132217 87.06769894 0
150.129912 72.41162643 0
152.2113289 70.65105861 0
156.5943138 67.70989464 0
154.6475313 63.79696541 0
158.9446761 61.32649186 0
164.7817012 60.74220648 0
170.2499701 67.42032039 0
164.4096836 66.13811289 0
171.8722845 84.24834274 0
177.0129877 86.87322161 0
170.3482395 95.86532494 0
166.4960184 90.95548417 0
182.2401295 86.5694532 0
176.2570785 85.06283362 0
85.45708251 175.5645658 0
86.36612469 179.2389719 0
87.5912603 173.4804767 0
89.81488528 175.5286644 0
92.44732639 166.5352707 0
93.36643692 171.2978038 0
87.04119905 180.9846693 0
88.60817667 172.273503 0
157.1690123 33.97098941 0
160.1410198 29.20735286 0
161.3387541 56.08713926 0
154.9803873 55.67347056 0
152.2181447 68.09570456 0
151.4232294 62.68326919 0
146.6198301 72.03753333 0
154.2263665 73.80858722 0
63.12775746 151.3408002 0
66.50387615 149.8253861 0
44.6796256 164.8689036 0
41.3437499 164.0899025 0
37.97355507 160.3629868 0
40.93522012 160.8637558 0
40.57371977 209.3341576 0
38.62318551 206.0290108 0
64.80927747 194.4253796 0
55.14711922 193.4982613 0
78.84211784 178.5298266 0
83.28293343 184.4500738 0
85.83814832 185.729245 0
88.8548416 184.2673203 0
74.00956854 175.4722227 0
73.03020268 187.6698487 0
92.18624075 164.4160906 0
90.45164283 162.1501053 0
85.15188474 149.1226491 0
79.86056502 148.3503018 0
160.022453 91.27400961 0
161.4166143 89.79311757 0
160.8733939 93.87611823 0
168.4427298 92.22882827 0
184.9452448 84.18485152 0
188.5552456 86.60590607 0
188.6391888 81.22807489 0
177.0846025 79.09817105 0
175.435164 69.06357774 0
194.4741044 67.33626457 0
167.1690046 28.58547244 0
171.8307423 25.58736903 0
177.9869215 30.51097912 0
172.6821019 28.07133556 0
183.1298886 33.26743402 0
181.6614129 32.32236721 0
94.60401463 167.4190217 0
88.93205123 166.6400487 0
34.71621088 191.592282 0
29.9443033 190.6641922 0
91.89711216 157.2225637 0
93.50489367 162.3029802 0
189.0540881 37.1253155 0
185.1008137 32.60195984 0
186.3907098 42.44469489 0
185.8612612 38.4788956 0
189.9836515 46.40997125 0
184.8901732 41.39582304 0
186.4167755 51.28418197 0
182.7247134 46.88229674 0
181.9420037 48.50162337 0
191.3921316 63.43759452 0
169.8172725 50.6468856 0
171.4307628 51.52479951 0
167.9477805 50.55714448 0
163.2142964 50.70296029 0
172.8955309 50.04474384 0
178.4537431 51.22810001 0
165.9623401 45.54900264 0
165.8109454 47.51707058 0
164.1761295 44.27772763 0
159.4588833 37.35070863 0
163.0966714 40.60777125 0
169.5152887 30.55498995 0
203.4086278 36.92545235 0
207.4500609 34.338668 0
198.3653415 56.7872357 0
202.0918384 59.03195994 0
187.2492956 47.18435015 0
194.6570021 53.29835462 0
186.133267 44.2839304 0
192.4960868 44.89235969 0
197.8420155 33.25719174 0
200.0236443 36.90856199 0
53.53651461 161.5148104 0
62.13315084 171.3557788 0
49.36966225 174.9005286 0
50.92600624 169.3663303 0
41.4913403 191.3618919 0
41.74503219 187.59101 0
50.75408924 176.300796 0
50.09090131 189.0068106 0
49.34419142 185.4933547 0
45.00286299 185.3210197 0
35.58500721 185.3361209 0
38.65706768 185.7534901 0
37.15210321 184.6431771 0
28.12360909 187.617533 0
24.49376875 175.5366544 0
30.18493929 176.5602841 0
24.2440228 169.3408624 0
30.96799634 170.3328041 0
34.41702985 158.0304135 0
30.15172726 167.9017584 0
42.97130482 165.0289286 0
48.66397649 164.2228494 0
42.24912961 166.7554365 0
40.20809518 165.2278781 0
57.79621489 201.459494 0
58.18629814 195.2752559 0
35.79275423 204.3809049 0
38.69932912 204.5041138 0
34.97701827 200.1722879 0
37.86635625 196.2406471 0
38.91102491 197.8329435 0
36.7838958 188.3799413 0
44.46793399 191.7214319 0
43.57005305 193.3530406 0
48.6494035 193.7825813 0
43.28633474 190.4351304 0
47.90695091 180.2848633 0
53.97736957 194.7980552 0
57.03410807 191.1544736 0
72.56178637 173.6879044 0
82.33583846 172.2961837 0
64.61821986 189.1389297 0
85.170784 170.1240929 0
90.41778816 172.6675715 0
48.68642194 168.6196481 0
65.95106116 163.3189783 0
64.1447605 160.098851 0
66.64166363 165.2559072 0
67.25559388 161.8104386 0
64.05367337 155.0006737 0
74.09960539 150.48128 0
79.66301234 141.1790234 0
85.66471611 141.308646 0
81.65542891 152.0151033 0
182.2684714 51.9032173 0
178.6866616 73.34194473 0
172.5172691 80.07485063 0
175.8078715 74.65651952 0
169.9537492 90.76696215 0
168.9496098 85.27751399 0
158.248693 90.18631661 0
160.5263051 88.17943663 0
165.6377284 95.96540622 0
163.9206793 87.87980591 0
156.3777472 86.56112855 0
152.4152098 86.73525907 0
145.4759429 75.46627173 0
149.8346832 76.28901735 0
147.0444245 83.88242988 0
155.1987788 83.53854531 0
158.314349 65.94093362 0
157.1900693 69.7472029 0
162.0540206 62.41316333 0
162.3649815 65.10602522 0
180.1754339 54.88605714 0
166.5823205 69.04905931 0
191.3815769 53.92248566 0
184.7990285 75.84745351 0
170.3934605 98.10141285 0
170.898641 102.0187112 0
174.5381772 84.94273057 0
178.5289174 70.29007918 0
176.2235113 90.1925775 0
173.2263209 92.08999259 0
180.4773797 85.78792902 0
185.1860996 87.86268189 0
87.36040757 187.7227584 0
91.4746424 185.602787 0
80.7954027 186.3368695 0
88.89281068 181.3115483 0
96.56164953 165.7285065 0
99.44587562 166.8394308 0
90.37295954 177.1592818 0
90.64510791 167.7818848 0
159.1032621 43.74122484 0
167.3440093 48.49662703 0
164.2370211 30.43809326 0
149.219008 27.40594087 0
149.4941859 65.6769445 0
156.5977704 51.67564443 0
150.8784147 74.76274621 0
145.9772882 67.85820546 0
142.3664619 83.25496176 0
147.9422934 77.36663597 0
73.58474439 146.9284094 0
71.05410985 155.0906975 0
67.77767012 158.531643 0
56.22494438 154.9307443 0
47.82814311 166.7169184 0
45.75542412 166.6556173 0
21.20522087 176.4594094 0
19.92142082 169.2361433 0
13.77093143 157.5967053 0
22.31963377 153.6255132 0
56.20768375 199.9186913 0
61.59541568 204.6742696 0
76.7805237 184.6315629 0
89.53490422 187.4183521 0
76.00055667 174.8625521 0
74.05001026 192.8460541 0
82.27146021 190.695555 0
91.077648 188.1307182 0
94.98589289 192.5972517 0
92.37522259 189.2703029 0
97.21276525 170.6839403 0
89.02306163 164.7843571 0
100.4874364 173.1782565 0
104.11207 171.5864036 0
[...]
POINT_DATA 1568
SCALARS GLOBAL_ID int 1
LOOKUP_TABLE default
-1 
-1 
-1 
-1 
-1 
-1 
-1 
-1 
-1 
-1 
-1 
-1 
-1 
-1 
-1 
-1 
-1 
-1 
-1 
-1 
-1 
-1 
-1 
-1 
-1 
-1 
-1 
-1 
-1 
-1 
-1 
-1 
-1 
-1 
-1 
-1 
-1 
-1 
-1 
-1 
-1 
-1 
-1 
-1 
-1 
-1 
-1 
-1 
-1 
-1 
-1 
-1 
-1 
-1 
-1 
-1 
-1 
-1 
-1 
-1 
-1 
-1 
-1 
-1 
-1 
-1 
-1 
-1 
-1 
-1 
-1 
-1 
-1 
-1 
-1 
-1 
-1 
-1 
-1 
-1 
-1 
-1 
-1 
-1 
-1 
-1 
-1 
-1 
-1 
-1 
-1 
-1 
-1 
-1 
-1 
-1 
-1 
-1 
-1 
-1 
-1 
-1 
-1 
-1 
-1 
-1 
-1 
-1 
-1 
-1 
-1 
-1 
-1 
-1 
-1 
-1 
-1 
-1 
-1 
-1 
-1 
-1 
-1 
-1 
-1 
-1 
-1 
-1 
-1 
-1 
-1 
-1 
-1 
-1 
-1 
-1 
-1 
-1 
-1 
-1 
-1 
-1 
-1 
-1 
-1 
-1 
-1 
-1 
-1 
-1 
-1 
-1 
-1 
-1 
-1 
-1 
-1 
-1 
-1 
-1 
-1 
-1 
-1 
-1 
-1 
-1 
-1 
-1 
-1 
-1 
-1 
-1 
-1 
-1 
-1 
-1 
-1 
-1 
-1 
-1 
-1 
-1 
-1 
-1 
-1 
-1 
-1 
-1 
-1 
-1 
-1 
-1 
-1 
-1 
-1 
-1 
-1 
-1 
-1 
-1 
-1 
-1 
-1 
-1 
-1 
-1 
-1 
-1 
-1 
-1 
-1 
-1 
-1 
-1 
-1 
-1 
-1 
-1 
-1 
-1 
-1 
-1 
-1 
-1 
-1 
-1 
-1 
-1 
-1 
-1 
-1 
-1 
-1 
-1 
-1 
-1 
-1 
-1 
-1 
-1 
-1 
-1 
-1 
-1 
-1 
-1 
-1 
-1 
-1 
-1 
-1 
-1 
-1 
-1 
-1 
-1 
-1 
-1 
-1 
-1 
-1 
-1 
-1 
-1 
-1 
-1 
-1 
-1 
-1 
-1 
-1 
-1 
-1 
-1 
-1 
-1 
-1 
-1 
-1 
-1 
-1 
-1 
-1 
-1 
-1 
-1 
-1 
-1 
-1 
-1 
-1 
-1 
-1 
-1 
-1 
-1 
-1 
-1 
-1 
-1 
-1 
-1 
-1 
-1 
-1 
-1 
-1 
-1 
-1 
-1 
-1 
-1 
-1 
-1 
-1 
-1 
-1 
-1 
-1 
-1 
-1 
-1 
-1 
-1 
-1 
-1 
-1 
-1 
-1 
-1 
-1 
-1 
-1 
-1 
-1 
-1 
-1 
-1 
-1 
-1 
-1 
-1 
-1 
-1 
-1 
-1 
-1 
-1 
-1 
-1 
-1 
-1 
-1 
-1 
-1 
-1 
-1 
-1 
-1 
-1 
-1 
-1 
-1 
-1 
-1 
-1 
-1 
-1 
-1 
-1 
-1 
-1 
-1 
-1 
-1 
-1 
-1 
-1 
-1 
-1 
-1 
-1 
-1 
-1 
-1 
-1 
-1 
-1 
-1 
-1 
-1 
-1 
-1 
-1 
-1 
-1 
-1 
-1 
-1 
-1 
-1 
-1 
-1 
-1 
-1 
-1 
-1 
-1 
-1 
-1 
-1 
-1 
-1 
-1 
-1 
-1 
-1 
-1 
-1 
-1 
-1 
-1 
-1 
-1 
-1 
-1 
-1 
-1 
-1 
-1 
-1 
-1 
-1 
-1 
-1 
-1 
-1 
-1 
-1 
-1 
-1 
-1 
-1 
-1 
-1 
-1 
-1 
-1 
-1 
-1 
-1 
-1 
-1 
-1 
-1 
-1 
-1 
-1 
-1 
-1 
-1 
-1 
-1 
-1 
-1 
-1 
-1 
-1 
-1 
-1 
-1 
-1 
-1 
-1 
-1 
-1 
-1 
-1 
-1 
-1 
-1 
-1 
-1 
-1 
-1 
-1 
-1 
-1 
-1 
-1 
-1 
-1 
-1 
-1 
-1 
-1 
-1 
-1 
-1 
-1 
-1 
-1 
-1 
-1 
-1 
-1 
-1 
-1 
-1 
-1 
-1 
-1 
-1 
-1 
-1 
-1 
-1 
-1 
-1 
-1 
-1 
-1 
-1 
-1 
-1 
-1 
-1 
-1 
-1 
-1 
-1 
-1 
-1 
-1 
-1 
-1 
-1 
-1 
-1 
-1 
-1 
-1 
-1 
-1 
-1 
-1 
-1 
-1 
-1 
-1 
-1 
-1 
-1 
-1 
-1 
-1 
-1 
-1 
-1 
-1 
-1 
-1 
-1 
-1 
-1 
-1 
-1 
-1 
-1 
-1 
-1 
-1 
-1 
-1 
-1 
-1 
-1 
-1 
-1 
-1 
-1 
-1 
-1 
-1 
-1 
-1 
-1 
-1 
-1 
-1 
-1 
-1 
-1 
-1 
-1 
-1 
-1 
-1 
-1 
-1 
-1 
-1 
-1 
-1 
-1 
-1 
-1 
-1 
-1 
-1 
-1 
-1 
-1 
-1 
-1 
-1 
-1 
-1 
-1 
-1 
-1 
-1 
-1 
-1 
-1 
-1 
-1 
-1 
-1 
-1 
-1 
-1 
-1 
-1 
-1 
-1 
-1 
-1 
-1 
-1 
-1 
-1 
-1 
-1 
-1 
-1 
-1 
-1 
-1 
-1 
-1 
-1 
-1 
-1 
-1 
-1 
-1 
-1 
-1 
-1 
-1 
-1 
-1 
-1 
-1 
-1 
-1 
-1 
-1 
-1 
-1 
-1 
-1 
-1 
-1 
-1 
-1 
-1 
-1 
-1 
-1 
-1 
-1 
-1 
-1 
-1 
-1 
-1 
-1 
-1 
-1 
-1 
-1 
-1 
-1 
-1 
-1 
-1 
-1 
-1 
-1 
-1 
-1 
-1 
-1 
-1 
-1 
-1 
-1 
-1 
-1 
-1 
-1 
-1 
-1 
-1 
-1 
-1 
-1 
-1 
-1 
-1 
-1 
-1 
-1 
-1 
-1 
-1 
-1 
-1 
-1 
-1 
-1 
-1 
-1 
-1 
-1 
-1 
-1 
-1 
-1 
-1 
-1 
-1 
-1 
-1 
-1 
-1 
-1 
-1 
-1 
-1 
-1 
-1 
-1 
-1 
-1 
-1 
-1 
-1 
-1 
-1 
-1 
-1 
-1 
-1 
-1 
-1 
-1 
-1 
-1 
-1 
-1 
-1 
-1 
-1 
-1 
-1 
-1 
-1 
-1 
-1 
-1 
-1 
-1 
-1 
-1 
-1 
-1 
-1 
-1 
-1 
-1 
-1 
-1 
-1 
-1 
-1 
-1 
-1 
-1 
-1 
-1 
-1 
-1 
-1 
-1 
-1 
-1 
-1 
-1 
-1 
-1 
-1 
-1 
-1 
-1 
-1 
-1 
-1 
-1 
-1 
-1 
-1 
-1 
-1 
-1 
-1 
-1 
-1 
-1 
-1 
-1 
-1 
-1 
-1 
-1 
-1 
-1 
-1 
-1 
-1 
-1 
-1 
-1 
-1 
-1 
-1 
-1 
-1 
-1 
-1 
-1 
-1 
-1 
-1 
-1 
-1 
-1 
-1 
-1 
-1 
-1 
-1 
-1 
-1 
-1 
-1 
-1 
-1 
-1 
-1 
-1 
-1 
-1 
-1 
-1 
-1 
-1 
-1 
-1 
-1 
-1 
-1 
-1 
-1 
-1 
-1 
-1 
-1 
-1 
-1 
-1 
-1 
-1 
-1 
-1 
-1 
-1 
-1 
-1 
-1 
-1 
-1 
-1 
-1 
-1 
-1 
-1 
-1 
-1 
-1 
-1 
-1 
-1 
-1 
-1 
-1 
-1 
-1 
-1 
-1 
-1 
-1 
-1 
-1 
-1 
-1 
-1 
-1 
-1 
-1 
-1 
-1 
-1 
-1 
-1 
-1 
-1 
-1 
-1 
-1 
-1 
-1 
-1 
-1 
-1 
-1 
-1 
-1 
-1 
-1 
-1 
-1 
-1 
-1 
-1 
-1 
-1 
-1 
-1 
-1 
-1 
-1 
-1 
-1 
-1 
-1 
-1 
-1 
-1 
-1 
-1 
-1 
-1 
-1 
-1 
-1 
-1 
-1 
-1 
-1 
-1 
-1 
-1 
-1 
-1 
-1 
-1 
-1 
-1 
-1 
-1 
-1 
-1 
-1 
-1 
-1 
-1 
-1 
-1 
-1 
-1 
-1 
-1 
-1 
-1 
-1 
-1 
-1 
-1 
-1 
-1 
-1 
-1 
-1 
-1 
-1 
-1 
-1 
-1 
-1 
-1 
-1 
-1 
-1 
-1 
-1 
-1 
-1 
-1 
-1 
-1 
-1 
-1 
-1 
-1 
-1 
-1 
-1 
-1 
-1 
-1 
-1 
-1 
-1 
-1 
-1 
-1 
-1 
-1 
-1 
-1 
-1 
-1 
-1 
-1 
-1 
-1 
-1 
-1 
-1 
-1 
-1 
-1 
-1 
-1 
-1 
-1 
-1 
-1 
-1 
-1 
-1 
-1 
-1 
-1 
-1 
-1 
-1 
-1 
-1 
-1 
-1 
-1 
-1 
-1 
-1 
-1 
-1 
-1 
-1 
-1 
-1 
-1 
-1 
-1 
-1 
-1 
-1 
-1 
-1 
-1 
-1 
-1 
-1 
-1 
-1 
-1 
-1 
-1 
-1 
-1 
-1 
-1 
-1 
-1 
-1 
-1 
-1 
-1 
-1 
-1 
-1 
-1 
-1 
-1 
-1 
-1 
-1 
-1 
-1 
-1 
-1 
-1 
-1 
-1 
-1 
-1 
-1 
-1 
-1 
-1 
-1 
-1 
-1 
-1 
-1 
-1 
-1 
-1 
-1 
-1 
-1 
-1 
-1 
-1 
-1 
-1 
-1 
-1 
-1 
-1 
-1 
-1 
-1 
-1 
-1 
-1 
-1 
-1 
-1 
-1 
-1 
-1 
-1 
-1 
-1 
-1 
-1 
-1 
-1 
-1 
-1 
-1 
-1 
-1 
-1 
-1 
-1 
-1 
-1 
-1 
-1 
-1 
-1 
-1 
-1 
-1 
-1 
-1 
-1 
-1 
-1 
-1 
-1 
-1 
-1 
-1 
-1 
-1 
-1 
-1 
-1 
-1 
-1 
-1 
-1 
-1 
-1 
-1 
-1 
-1 
-1 
-1 
-1 
-1 
-1 
-1 
-1 
-1 
-1 
-1 
-1 
-1 
-1 
-1 
-1 
-1 
-1 
-1 
-1 
-1 
-1 
-1 
-1 
-1 
-1 
-1 
-1 
-1 
-1 
-1 
-1 
-1 
-1 
-1 
-1 
-1 
-1 
-1 
-1 
-1 
-1 
-1 
-1 
-1 
-1 
-1 
-1 
-1 
-1 
-1 
-1 
-1 
-1 
-1 
-1 
-1 
-1 
-1 
-1 
-1 
-1 
-1 
-1 
-1 
-1 
-1 
-1 
-1 
-1 
-1 
-1 
-1 
-1 
-1 
-1 
-1 
-1 
-1 
-1 
-1 
-1 
-1 
-1 
-1 
-1 
-1 
-1 
-1 
-1 
-1 
-1 
-1 
-1 
-1 
-1 
-1 
-1 
-1 
-1 
-1 
-1 
-1 
-1 
-1 
-1 
-1 
-1 
-1 
-1 
-1 
-1 
-1 
-1 
-1 
-1 
-1 
-1 
-1 
-1 
-1 
-1 
-1 
-1 
-1 
-1 
-1 
-1 
-1 
-1 
-1 
-1 
-1 
-1 
-1 
-1 
-1 
-1 
-1 
-1 
-1 
-1 
-1 
-1 
-1 
-1 
-1 
-1 
-1 
-1 
-1 
-1 
-1 
-1 
-1 
-1 
-1 
-1 
-1 
-1 
-1 
-1 
-1 
-1 
-1 
-1 
-1 
-1 
-1 
-1 
-1 
-1 
-1 
-1 
-1 
-1 
-1 
-1 
-1 
-1 
-1 
-1 
-1 
-1 
-1 
-1 
-1 
-1 
-1 
-1 
-1 
-1 
-1 
-1 
-1 
-1 
-1 
-1 
-1 
-1 
-1 
-1 
-1 
-1 
-1 
-1 
-1 
-1 
-1 
-1 
-1 
-1 
-1 
-1 
-1 
-1 
-1 
-1 
-1 
-1 
-1 
-1 
-1 
-1 
-1 
-1 
-1 
-1 
-1 
-1 
-1 
-1 
-1 
-1 
-1 
-1 
-1 
-1 
-1 
-1 
-1 
-1 
-1 
-1 
-1 
-1 
-1 
-1 
-1 
-1 
-1 
-1 
-1 
-1 
-1 
-1 
-1 
-1 
-1 
-1 
-1 
-1 
-1 
-1 
-1 
-1 
-1 
-1 
-1 
-1 
-1 
-1 
-1 
-1 
-1 
-1 
-1 
-1 
-1 
-1 
-1 
-1 
-1 
-1 
-1 
-1 
-1 
-1 
-1 
-1 
-1 
-1 
-1 
-1 
-1 
-1 
-1 
-1 
-1 
-1 
-1 
-1 
-1 
-1 
-1 
-1 
-1 
-1 
-1 
-1 
-1 
-1 
-1 
-1 
-1 
-1 
-1 
-1 
-1 
-1 
-1 
-1 
-1 
-1 
-1 
-1 
-1 
-1 
-1 
-1 
-1 
-1 
-1 
-1 
-1 
-1 
-1 
-1 
-1 
-1 
-1 
-1 
-1 
-1 
-1 
-1 
VECTORS G_average double
-1.814117806 -3.17577059 0 
-1.708620906 -3.170203785 0 
-3.835008578 -0.7380277947 0 
-3.875701463 -0.9823574825 0 
-4.375742619 -1.023117644 0 
-4.068118516 -0.7055770314 0 
-4.014736874 -1.014542697 0 
-4.423904664 -1.320624963 0 
-1.390137013 -4.76121227 0 
-1.600564411 -4.663901997 0 
-0.8272826618 -4.074248133 0 
-0.759368183 -4.468983393 0 
-0.5279571304 -4.168907463 0 
-0.6914911976 -4.228703474 0 
-1.316429076 -4.496439716 0 
-1.436237165 -4.174727416 0 
-3.732372898 -1.084758362 0 
-4.081718012 -1.442128992 0 
-4.201440241 -1.608786831 0 
-4.51140018 -1.166906821 0 
-4.590526274 -1.455342577 0 
-4.668685296 -1.669360746 0 
-1.75130216 -3.118715484 0 
-1.712904642 -3.057406366 0 
-0.6233831505 -3.875306625 0 
-1.041420474 -4.17069346 0 
-3.932468241 -0.3444264857 0 
-3.93573025 -0.6699653151 0 
-4.881710863 -1.599385288 0 
-4.750059607 -1.478263701 0 
-4.163598556 -0.3493730037 0 
-4.110008249 -0.8537023124 0 
-4.845585207 -1.597748595 0 
-4.884073909 -1.398333673 0 
-3.732635902 -0.6913347748 0 
-3.560956761 -0.8129375446 0 
-3.540330568 -0.844999522 0 
-3.58054183 -0.8196670866 0 
-3.719639462 -0.5469911411 0 
-4.16019113 -1.13068134 0 
-1.564732842 -4.753461231 0 
-1.604789374 -4.902519573 0 
-1.311903155 -4.903274938 0 
-1.098258815 -3.960545869 0 
-0.3463897141 -3.740115654 0 
-0.7681535306 -3.913162073 0 
-0.9778931138 -3.815410691 0 
-0.4065978002 -4.371638726 0 
-0.4833081384 -3.518711818 0 
-0.2723008207 -3.620637764 0 
-0.4917813638 -3.983821465 0 
-0.7595356314 -3.542221293 0 
-1.62712302 -3.768306502 0 
-1.307853513 -3.958915672 0 
-1.941468564 -3.371906436 0 
-1.713261249 -3.605971133 0 
-1.677820113 -3.423889651 0 
-2.030730638 -3.205729619 0 
-1.728048904 -4.037463675 0 
-0.9582184811 -4.567115626 0 
-1.571075223 -4.891876319 0 
-1.652234006 -4.806250789 0 
-2.996906773 -1.810326241 0 
-3.174143942 -1.824585136 0 
-3.024196598 -1.760693912 0 
-3.067455824 -1.826114148 0 
-3.336607669 -1.737131557 0 
-3.164331933 -1.680437621 0 
-1.738013798 -3.005162549 0 
-1.6148553 -3.013765419 0 
-4.989205183 -1.612281333 0 
-4.80649477 -1.553617872 0 
-1.643894401 -4.823422839 0 
-1.646589938 -5.105154465 0 
-1.627682754 -3.117057103 0 
-1.629437543 -3.105793683 0 
-1.064058547 -4.822665442 0 
-1.279162696 -3.591207258 0 
-3.120013955 -1.610211378 0 
-3.141155236 -1.480631125 0 
-3.813013726 -1.417313741 0 
-3.352682154 -1.314578963 0 
-4.207679305 -1.297425732 0 
-3.559148497 -0.8149119225 0 
-5.433565212 -0.5798704446 0 
-5.512422209 -0.5855725552 0 
-4.573863392 -0.09239093987 0 
-4.252403011 0.1289319774 0 
-3.802334583 -0.208288291 0 
-4.439985546 -0.360876662 0 
-4.592476719 -1.603554033 0 
-4.905788711 -0.9927874215 0 
-5.095633598 -1.216119905 0 
-5.075357716 -0.8704347824 0 
-5.008991411 -0.6336316145 0 
-4.531613436 -0.499647776 0 
-3.690307248 -1.282329398 0 
-3.436246464 -0.7538722214 0 
-3.597261425 -0.3324513002 0 
-3.815087747 -0.857384839 0 
-3.610025998 -0.4713006628 0 
-3.626731713 -0.198060828 0 
-3.671402904 -0.2036734543 0 
-3.550794763 0.1319273821 0 
-4.175206773 0.4195629834 0 
-4.073073046 -0.01211253999 0 
-3.896399785 -0.006735544836 0 
-4.013235453 0.1337517201 0 
-1.426819904 -4.399501683 0 
-1.469208749 -4.997325196 0 
-0.5773563726 -4.590315731 0 
-1.507975951 -4.764481946 0 
-0.5801285459 -4.910579755 0 
-0.6194380094 -3.727148129 0 
-0.1373663937 -4.246155932 0 
-0.4172907747 -3.961210567 0 
-0.4178491883 -4.603331161 0 
-0.5109444413 -4.373063969 0 
-0.6040495659 -5.562663656 0 
-0.5072554803 -5.4304403 0 
-0.7921708781 -4.922653193 0 
-0.7701324874 -5.388427711 0 
0.1234152436 -4.205294284 0 
-0.2387374341 -3.83562948 0 
-0.1613903315 -3.617177251 0 
-0.1969049872 -3.61856399 0 
-0.1324985889 -4.002292542 0 
-0.7147223711 -3.37109815 0 
-0.8092705747 -3.548159894 0 
-0.6926388621 -3.514806895 0 
-1.833197759 -3.189448259 0 
-2.022690546 -3.250417004 0 
-1.737976976 -3.001534472 0 
-1.754878713 -3.231079667 0 
-1.794584214 -4.553573119 0 
-1.944244783 -4.086425604 0 
-1.680300968 -4.688877332 0 
-1.696574519 -4.971959919 0 
-1.644075529 -4.903130403 0 
-1.951718038 -4.540027298 0 
-1.629505253 -4.779868534 0 
-1.873515236 -4.745656697 0 
-3.461820587 -1.642180599 0 
-4.379051295 -1.67092665 0 
-3.182226654 -1.633275279 0 
-3.382139142 -1.976995496 0 
-3.041261375 -1.970379027 0 
-3.363942799 -1.820589992 0 
-3.045896944 -1.763870455 0 
-3.057547054 -1.884883588 0 
-3.672702304 -1.847448873 0 
-3.223361581 -1.681501536 0 
-4.567875025 -2.130239826 0 
-4.609106528 -1.933095442 0 
-4.787201113 -1.646634087 0 
-4.944225483 -1.771484782 0 
-4.928265826 -1.673345082 0 
-4.780376917 -1.633705342 0 
-4.464645685 -1.839621053 0 
-4.874255451 -1.73026541 0 
-2.971152484 -1.713970023 0 
-3.068045867 -1.69897645 0 
-2.936310183 -2.632000589 0 
-3.669713669 -2.230150285 0 
-3.120432852 -1.605208655 0 
-3.102246167 -1.746758758 0 
-1.745221415 -3.082058699 0 
-1.609076353 -3.048372888 0 
-1.767086366 -3.04238786 0 
-1.734387168 -2.92636376 0 
-2.430122772 -3.594900618 0 
-2.265368565 -2.953947855 0 
-1.573538294 -3.090745105 0 
-1.821750923 -3.075435215 0 
-5.445721813 -1.022374506 0 
-5.47490039 -0.7590117222 0 
-4.936960363 -1.642786617 0 
-5.131763664 -1.743852647 0 
-4.773903917 -1.893018106 0 
-5.030471924 -1.893658937 0 
-4.752757534 -2.276764866 0 
-4.121144695 -1.838166456 0 
-1.927492155 -5.026173559 0 
-1.967274247 -4.905477691 0 
-1.512958183 -4.714644107 0 
-1.207605755 -4.674000328 0 
-1.065394135 -5.122639727 0 
-1.219687057 -5.028906279 0 
-0.1496644853 -3.129945911 0 
-0.126903333 -3.915132618 0 
-0.877712399 -3.356032187 0 
-0.8035467291 -3.524913076 0 
-1.781644719 -3.328458184 0 
-1.567430581 -3.089494959 0 
-1.629518255 -3.07361352 0 
-1.633744445 -3.183121128 0 
-1.927010916 -3.681932012 0 
-1.308033874 -3.29658169 0 
-2.536128654 -3.870741525 0 
-2.532560345 -4.331672067 0 
-2.905150168 -4.690963384 0 
-2.688397922 -4.532829919 0 
-4.451812036 -2.841272068 0 
-4.503340637 -2.567453341 0 
-4.175788274 -2.972723287 0 
-3.326667167 -2.291941316 0 
-3.087814258 -1.591123982 0 
-2.953815803 -1.61763035 0 
-3.042541031 -1.481288735 0 
-3.284568234 -1.836913228 0 
-4.027426173 -1.734559749 0 
-3.281621209 -0.9361310821 0 
-5.325117993 -0.4865459555 0 
-5.435116107 -0.5208795071 0 
-5.599266282 -0.6532013879 0 
-5.454452058 -0.4124294279 0 
-4.940296713 -0.988275487 0 
-5.218149178 -0.975125687 0 
-2.619487084 -3.336520515 0 
-1.896761827 -3.748833907 0 
-0.04099313833 -4.317072688 0 
-0.08745560867 -4.894908878 0 
-3.05518287 -4.607497609 0 
-2.872186711 -4.127133199 0 
-4.164328868 -0.2796733591 0 
-4.790053725 -0.7019877367 0 
-3.557849906 -0.240675924 0 
-3.857517066 -0.6440367995 0 
-3.517224409 -0.2541961925 0 
-3.390376641 -0.3967315364 0 
-3.866402744 -0.4983466083 0 
-4.021507653 0.1236672092 0 
-4.287535788 -0.09532511504 0 
-3.470348678 -0.9321068484 0 
-4.944897907 -1.590126877 0 
-4.97499379 -1.48560989 0 
-4.876094166 -1.608493639 0 
-4.932116639 -1.596410515 0 
-5.171978577 -1.451058835 0 
-4.744421313 -0.6822554226 0 
-4.695104793 -1.608529576 0 
-4.801910676 -1.633212168 0 
-4.747018659 -1.461217692 0 
-5.186090388 -1.065314921 0 
-4.791797546 -1.136973783 0 
-5.314327906 -0.3187621434 0 
-4.208428355 0.2579728904 0 
-3.825521086 0.469796423 0 
-3.633506174 -0.6974971274 0 
-3.445524936 -0.4019348971 0 
-3.689190104 -0.2579835348 0 
-3.484005413 -0.8884363244 0 
-3.57848857 -0.1429107242 0 
-3.192225041 -0.03311862136 0 
-4.368157759 0.4132653088 0 
-4.338755229 0.4493075812 0 
-1.610796747 -4.969044398 0 
-1.56581656 -4.534653838 0 
-1.170228675 -5.337480952 0 
-1.607476018 -4.925986976 0 
0.04643889791 -3.703759614 0 
-0.2505255327 -3.645585981 0 
-0.9200016266 -5.03711707 0 
-0.4778259012 -3.658281431 0 
-0.3231834883 -3.882047788 0 
-0.07474020389 -3.614802269 0 
-0.8124130219 -4.350539431 0 
-0.6658526323 -3.806198397 0 
-0.9598496616 -4.028978604 0 
-0.320073506 -5.122899225 0 
-0.5958909701 -5.490588088 0 
-0.5373128817 -5.748441849 0 
-0.532713013 -5.42800229 0 
-0.2445288167 -5.336204879 0 
-0.9913895854 -5.38457605 0 
-0.4252180055 -5.263065967 0 
-1.395522421 -4.615732328 0 
-1.580481835 -4.874361325 0 
-1.402402328 -4.340677375 0 
-1.074629616 -4.540023645 0 
-0.424004217 -3.555121941 0 
-0.7776423282 -3.529627451 0 
0.3239311586 -4.098772012 0 
-0.08188553387 -4.202620718 0 
0.4467538764 -4.278562319 0 
0.4440731899 -4.118190081 0 
0.6132647977 -4.186217708 0 
-0.3672039279 -4.200056438 0 
-0.04120117504 -3.314643613 0 
0.2007852293 -3.279066087 0 
-0.5820489572 -3.019766612 0 
-0.06931403176 -3.588267483 0 
0.1056817379 -4.671819612 0 
-0.8682559026 -3.513805823 0 
-0.7962023797 -3.58153942 0 
-2.047672569 -3.90692025 0 
-1.856704949 -2.931133379 0 
-1.023205629 -3.523342395 0 
-1.58942033 -3.066232696 0 
-1.905834978 -3.011691787 0 
-1.734544394 -4.861993061 0 
-1.697134478 -4.851909353 0 
-1.662818834 -4.898206623 0 
-1.750899218 -4.838194033 0 
-1.58379367 -4.923054391 0 
-1.768703769 -4.907902929 0 
-2.225236293 -4.471017754 0 
-2.622036029 -4.858314402 0 
-2.73646708 -4.915718889 0 
-2.989544835 -4.32238208 0 
-4.228003977 -0.5438473625 0 
-3.595301469 -1.711122348 0 
-3.006374881 -2.073850465 0 
-3.630421646 -1.942386846 0 
-3.213281157 -2.045342676 0 
-3.163081316 -1.450328872 0 
-4.672549603 -2.95365644 0 
-4.829265078 -2.647805701 0 
-3.498597501 -2.864681873 0 
-4.440376427 -1.929797084 0 
-4.799282626 -3.235245426 0 
-4.726506042 -3.101496179 0 
-4.727996499 -2.469155756 0 
-4.418190642 -2.42169366 0 
-4.712241642 -2.803032202 0 
-4.407176326 -3.419502992 0 
-4.860628814 -1.648342661 0 
-4.685459618 -1.497241092 0 
-4.878425081 -1.66891559 0 
-4.884139476 -1.678401544 0 
-4.339908743 -0.8796520291 0 
-4.851233248 -1.940830896 0 
-3.528786404 -0.7149526621 0 
-3.286644132 -1.472537591 0 
-2.801414563 -2.853699498 0 
-2.664779845 -3.193836869 0 
-3.052363494 -1.765713412 0 
-3.777883074 -1.620638795 0 
-2.865904973 -1.661931269 0 
-2.863205598 -2.016618602 0 
-3.077678603 -1.609750622 0 
-3.115199435 -1.651619574 0 
-1.681109177 -2.992203587 0 
-1.880669592 -3.318609772 0 
-1.522142185 -3.111196499 0 
-1.506807488 -3.099477962 0 
-2.935336444 -3.41782227 0 
-3.160145944 -3.154167915 0 
-1.559869175 -2.813944657 0 
-2.134357905 -3.50597235 0 
-5.073380777 -1.404030182 0 
-4.857346117 -1.671235289 0 
-5.328021104 -0.6085342417 0 
-6.053690229 -1.004154445 0 
-4.942636962 -2.005884973 0 
-5.138992084 -1.637848501 0 
-4.378295695 -2.235962192 0 
-5.013421946 -2.204044306 0 
-4.871066007 -2.693845844 0 
-4.518767464 -2.517401651 0 
-2.359634113 -4.714845536 0 
-1.646895877 -4.489942055 0 
-1.572080763 -4.852841745 0 
-1.737226533 -5.114884077 0 
-1.679604048 -4.827949791 0 
-1.670684646 -4.677166588 0 
-0.6633094631 -5.439540496 0 
-0.5717031851 -5.412944338 0 
-0.4827313964 -5.827182476 0 
-0.7602236352 -5.94777862 0 
-0.5849731279 -3.722495178 0 
-0.3398062462 -3.18085763 0 
-1.486157835 -3.271115002 0 
-1.799029233 -3.02583548 0 
-2.030833855 -3.512357682 0 
-1.166363326 -3.114624772 0 
-1.459204122 -2.938870715 0 
-1.940959939 -2.968441659 0 
-1.985092366 -2.2841503 0 
-2.050483227 -2.802546529 0 
-2.750157373 -2.813124009 0 
-2.031507375 -4.105066993 0 
-3.128442597 -2.478369501 0 
-3.254494866 -2.569403407 0 
-2.817497869 -5.039007502 0 
-3.044192797 -4.75287762 0 
-4.838343181 -2.901940306 0 
-4.35638638 -3.271217564 0 
-3.214642976 -3.184286585 0 
-3.847802427 -2.807921481 0 
-3.271340329 -2.050913044 0 
-2.654372111 -2.512825325 0 
-2.108217943 -3.00257672 0 
-2.387163053 -2.937938133 0 
-2.759333531 -1.656457374 0 
-2.874361236 -1.929017865 0 
-3.027257279 -1.572066033 0 
-4.072156361 -1.9619779 0 
-4.331706393 -2.012019511 0 
-3.501613313 -0.7148291834 0 
-3.720124197 0.2003838259 0 
-4.163595161 0.7244714272 0 
-5.391867531 -0.6727900348 0 
-5.376141773 -0.6452083796 0 
-5.428038663 -0.3113331192 0 
-5.368559397 -0.6017097889 0 
-5.775018438 -0.2625987663 0 
-5.409550192 -0.5291477848 0 
-5.711542442 -0.4850899424 0 
-5.261359018 -0.7463079948 0 
-4.368352013 -0.9047804088 0 
-5.03691588 -0.6214391684 0 
-2.193946927 -2.681840024 0 
-1.616171088 -3.581179653 0 
-2.77886462 -4.69244811 0 
-3.016622669 -3.839975882 0 
-2.905363784 -4.483821667 0 
-2.504238562 -4.610973208 0 
-0.6267345799 -5.360187724 0 
-0.6633803451 -5.207080553 0 
0.3319283731 -3.916475089 0 
0.4106634361 -4.542365257 0 
-0.6454558879 -5.335804891 0 
-0.6289466833 -5.423369814 0 
-3.035187335 -4.64874097 0 
-3.224256673 -4.743014514 0 
-4.932154765 -2.616290875 0 
-5.013606929 -2.90026832 0 
-4.286251387 0.3167915866 0 
-4.804052365 0.2539965991 0 
-5.395742765 -0.6373313556 0 
-5.409351323 -0.4300824542 0 
-3.519243452 -0.01104462829 0 
-4.068745469 -0.9381878286 0 
-3.810733322 -0.223276906 0 
-3.597917381 0.006886499673 0 
-3.803949269 -0.01081916461 0 
-3.287715054 -0.5518488191 0 
-4.593874951 0.6473012311 0 
-4.715679566 -1.165028908 0 
-4.864497125 -1.7944376 0 
-4.727110744 -1.735284184 0 
-4.974334897 -1.741330812 0 
-5.235815875 -1.183231789 0 
-5.20784343 -1.716697851 0 
-5.265264365 -1.573834238 0 
-4.707696835 -1.95248203 0 
-4.657957342 -1.306570132 0 
-4.287214746 -1.644562864 0 
-4.847096847 -0.431658426 0 
-5.16581356 -0.1543067232 0 
-4.619644969 0.1168369717 0 
-5.421994857 -0.5639717693 0 
-5.583602025 -0.5011407645 0 
-4.091421099 0.5196785877 0 
-4.390739979 0.3277966262 0 
-4.191803031 0.4224649776 0 
-3.273148314 0.09344447177 0 
-2.69813407 -0.7511265805 0 
-3.274913945 -0.5955732902 0 
-3.113840203 0.5744046146 0 
-2.42483611 0.5309369284 0 
-2.941731069 -1.201184418 0 
-3.559160495 -0.8491449934 0 
-3.260281654 0.8668292303 0 
-3.209660472 0.3354986469 0 
-3.343703001 -0.1924979128 0 