# vtk DataFile Version 3.0
MOAB 5.5.0
ASCII
DATASET UNSTRUCTURED_GRID
POINTS 1662 double
82.25230654 176.2924732 0
84.65630287 178.7297902 0
187.4611102 54.91642295 0
185.4119627 59.76371164 0
178.8349382 56.44359545 0
183.7320119 53.94165662 0
182.6677669 58.63834954 0
175.2243617 59.09558184 0
55.85204371 172.3728071 0
61.22671107 168.9007018 0
55.61257357 183.0992033 0
53.13287398 179.8100599 0
51.90568942 182.9749789 0
53.61710931 181.9288116 0
58.1580643 174.9181587 0
63.50996504 176.5377358 0
186.8738722 63.55820286 0
177.9800657 64.1170925 0
174.9270477 65.90800788 0
176.3774237 56.25216649 0
172.0011545 59.31557307 0
167.2606051 62.60162014 0
84.18747373 176.664281 0
87.14851751 176.3468464 0
53.03804369 186.8649211 0
57.87550324 181.0572472 0
185.17404 49.74072094 0
185.645678 53.635536 0
166.2767091 52.17080349 0
170.2954505 56.13710952 0
182.9394019 50.05363565 0
182.5762873 55.68929885 0
164.5480875 57.51717807 0
172.1823389 53.71114979 0
189.4202127 53.3591524 0
192.0052431 56.02940945 0
192.5129908 60.19275654 0
190.5843923 57.96854822 0
188.612478 51.23754319 0
180.2249631 59.36190901 0
58.48213002 167.5207848 0
51.65396435 164.2189456 0
53.24742493 173.3684471 0
60.95461195 182.4149889 0
48.79877993 187.3979296 0
55.46119177 186.0585749 0
60.93243219 187.0101399 0
50.59694743 181.5429398 0
49.14573003 190.6562032 0
46.94224274 188.2915455 0
51.4780056 184.9517168 0
54.77358768 191.4886368 0
70.13501853 178.6950902 0
63.8113121 180.1022137 0
77.86048027 175.8627223 0
73.25668977 178.5448888 0
76.22931547 180.6023225 0
79.21363635 174.0896623 0
68.70219622 175.2125996 0
54.15959806 177.8723269 0
53.05771527 167.4596969 0
62.17075485 164.1263512 0
173.3831535 83.49929302 0
176.1880238 81.37998205 0
174.0310509 87.88230391 0
172.5453572 88.63673621 0
179.7874605 78.84829485 0
179.7499094 83.59082896 0
88.2679403 175.1749842 0
87.58873056 177.9557432 0
160.8098592 52.44698208 0
167.0816052 55.34486408 0
59.22978219 164.1991834 0
52.41556514 156.9741665 0
83.53776653 182.1112844 0
87.04631325 184.0689478 0
52.80628053 175.8370031 0
68.61953053 185.9895853 0
184.067071 86.02219353 0
186.1537399 79.33593178 0
180.5638878 67.20940753 0
187.0112044 72.13556812 0
178.0633722 61.16507219 0
194.1330765 56.4707981 0
174.2886557 23.97693136 0
176.3769481 25.94759516 0
190.9338802 33.31336599 0
193.3312804 34.81719052 0
188.7856574 40.38802579 0
188.388262 34.82101428 0
170.5367602 62.16342931 0
176.138161 51.7841303 0
159.6896741 40.4608671 0
162.8918532 36.22815413 0
164.6979835 34.07917532 0
167.2686508 36.97171995 0
184.5519077 67.32831896 0
192.8337607 52.69044617 0
188.884976 47.84717936 0
188.0016236 57.41889497 0
189.7027211 49.60055004 0
187.3797718 45.35859961 0
188.2016852 42.01148144 0
192.2293098 41.61018802 0
196.6294842 37.092814 0
191.2239818 38.15880479 0
190.959725 40.12492445 0
192.9555559 37.35832811 0
60.94436489 174.347806 0
51.26635821 171.8388975 0
51.25910079 179.7193545 0
56.00268601 168.9366241 0
50.23363358 178.2454144 0
52.19635087 189.0154401 0
36.64245963 190.1731305 0
38.51489131 187.5236207 0
33.39586816 187.7950419 0
35.35897617 187.3027544 0
26.58005934 177.0516699 0
25.70708315 172.6538223 0
36.18687323 163.7715323 0
31.01647883 160.9745357 0
35.42989299 193.3301835 0
40.06960389 188.5307556 0
43.44501753 188.6293408 0
45.26113965 187.4381926 0
48.1330671 183.791811 0
51.61957229 192.5999859 0
57.40763961 193.1640981 0
53.07449603 190.9660443 0
88.44309556 170.5070288 0
90.40013978 169.6361494 0
84.53677712 172.1944441 0
81.1707041 178.8085265 0
66.47070771 169.5336721 0
70.37608529 173.2780799 0
63.05848585 166.7862667 0
59.20274391 158.1913897 0
57.54734108 161.6489706 0
68.78907055 169.4248177 0
68.06508415 156.682501 0
68.60822149 152.5574623 0
180.9821942 75.65257785 0
172.1389247 65.12586584 0
181.2559485 81.4204208 0
175.4005461 77.21702884 0
171.9445322 90.6481158 0
168.8458369 88.64108696 0
173.7082597 86.22613791 0
173.9052359 81.69886412 0
166.9817228 88.82682853 0
169.7132217 87.06769894 0
150.129912 72.41162643 0
152.2113289 70.65105861 0
156.5943138 67.70989464 0
154.6475313 63.79696541 0
158.9446761 61.32649186 0
164.7817012 60.74220648 0
170.2499701 67.42032039 0
164.4096836 66.13811289 0
171.8722845 84.24834274 0
177.0129877 86.87322161 0
170.3482395 95.86532494 0
166.4960184 90.95548417 0
182.2401295 86.5694532 0
176.2570785 85.06283362 0
85.45708251 175.5645658 0
86.36612469 179.2389719 0
87.5912603 173.4804767 0
89.81488528 175.5286644 0
92.44732639 166.5352707 0
93.36643692 171.2978038 0
87.04119905 180.9846693 0
88.60817667 172.273503 0
157.1690123 33.97098941 0
160.1410198 29.20735286 0
161.3387541 56.08713926 0
154.9803873 55.67347056 0
152.2181447 68.09570456 0
151.4232294 62.68326919 0
146.6198301 72.03753333 0
154.2263665 73.80858722 0
63.12775746 151.3408002 0
66.50387615 149.8253861 0
44.6796256 164.8689036 0
41.3437499 164.0899025 0
37.97355507 160.3629868 0
40.93522012 160.8637558 0
40.57371977 209.3341576 0
38.62318551 206.0290108 0
64.80927747 194.4253796 0
55.14711922 193.4982613 0
78.84211784 178.5298266 0
83.28293343 184.4500738 0
85.83814832 185.729245 0
88.8548416 184.2673203 0
74.00956854 175.4722227 0
73.03020268 187.6698487 0
92.18624075 164.4160906 0
90.45164283 162.1501053 0
85.15188474 149.1226491 0
79.86056502 148.3503018 0
160.022453 91.27400961 0
161.4166143 89.79311757 0
160.8733939 93.87611823 0
168.4427298 92.22882827 0
184.9452448 84.18485152 0
188.5552456 86.60590607 0
188.6391888 81.22807489 0
177.0846025 79.09817105 0
175.435164 69.06357774 0
194.4741044 67.33626457 0
167.1690046 28.58547244 0
171.8307423 25.58736903 0
177.9869215 30.51097912 0
172.6821019 28.07133556 0
183.1298886 33.26743402 0
181.6614129 32.32236721 0
94.60401463 167.4190217 0
88.93205123 166.6400487 0
34.71621088 191.592282 0
29.9443033 190.6641922 0
91.89711216 157.2225637 0
93.50489367 162.3029802 0
189.0540881 37.1253155 0
185.1008137 32.60195984 0
186.3907098 42.44469489 0
185.8612612 38.4788956 0
189.9836515 46.40997125 0
184.8901732 41.39582304 0
186.4167755 51.28418197 0
182.7247134 46.88229674 0
181.9420037 48.50162337 0
191.3921316 63.43759452 0
169.8172725 50.6468856 0
171.4307628 51.52479951 0
167.9477805 50.55714448 0
163.2142964 50.70296029 0
172.8955309 50.04474384 0
178.4537431 51.22810001 0
165.9623401 45.54900264 0
165.8109454 47.51707058 0
164.1761295 44.27772763 0
159.4588833 37.35070863 0
163.0966714 40.60777125 0
169.5152887 30.55498995 0
203.4086278 36.92545235 0
207.4500609 34.338668 0
198.3653415 56.7872357 0
202.0918384 59.03195994 0
187.2492956 47.18435015 0
194.6570021 53.29835462 0
186.133267 44.2839304 0
192.4960868 44.89235969 0
197.8420155 33.25719174 0
200.0236443 36.90856199 0
53.53651461 161.5148104 0
62.13315084 171.3557788 0
49.36966225 174.9005286 0
50.92600624 169.3663303 0
41.4913403 191.3618919 0
41.74503219 187.59101 0
50.75408924 176.300796 0
50.09090131 189.0068106 0
49.34419142 185.4933547 0
45.00286299 185.3210197 0
35.58500721 185.3361209 0
38.65706768 185.7534901 0
37.15210321 184.6431771 0
28.12360909 187.617533 0
24.49376875 175.5366544 0
30.18493929 176.5602841 0
24.2440228 169.3408624 0
30.96799634 170.3328041 0
34.41702985 158.0304135 0
30.15172726 167.9017584 0
42.97130482 165.0289286 0
48.66397649 164.2228494 0
42.24912961 166.7554365 0
40.20809518 165.2278781 0
57.79621489 201.459494 0
58.18629814 195.2752559 0
35.79275423 204.3809049 0
38.69932912 204.5041138 0
34.97701827 200.1722879 0
37.86635625 196.2406471 0
38.91102491 197.8329435 0
36.7838958 188.3799413 0
44.46793399 191.7214319 0
43.57005305 193.3530406 0
48.6494035 193.7825813 0
43.28633474 190.4351304 0
47.90695091 180.2848633 0
53.97736957 194.7980552 0
57.03410807 191.1544736 0
72.56178637 173.6879044 0
82.33583846 172.2961837 0
64.61821986 189.1389297 0
85.170784 170.1240929 0
90.41778816 172.6675715 0
48.68642194 168.6196481 0
65.95106116 163.3189783 0
64.1447605 160.098851 0
66.64166363 165.2559072 0
67.25559388 161.8104386 0
64.05367337 155.0006737 0
74.09960539 150.48128 0
79.66301234 141.1790234 0
85.66471611 141.308646 0
81.65542891 152.0151033 0
182.2684714 51.9032173 0
178.6866616 73.34194473 0
172.5172691 80.07485063 0
175.8078715 74.65651952 0
169.9537492 90.76696215 0
168.9496098 85.27751399 0
158.248693 90.18631661 0
160.5263051 88.17943663 0
165.6377284 95.96540622 0
163.9206793 87.87980591 0
156.3777472 86.56112855 0
152.4152098 86.73525907 0
145.4759429 75.46627173 0
149.8346832 76.28901735 0
147.0444245 83.88242988 0
155.1987788 83.53854531 0
158.314349 65.94093362 0
157.1900693 69.7472029 0
162.0540206 62.41316333 0
162.3649815 65.10602522 0
180.1754339 54.88605714 0
166.5823205 69.04905931 0
191.3815769 53.92248566 0
184.7990285 75.84745351 0
170.3934605 98.10141285 0
170.898641 102.0187112 0
174.5381772 84.94273057 0
178.5289174 70.29007918 0
176.2235113 90.1925775 0
173.2263209 92.08999259 0
180.4773797 85.78792902 0
185.1860996 87.86268189 0
87.36040757 187.7227584 0
91.4746424 185.602787 0
80.7954027 186.3368695 0
88.89281068 181.3115483 0
96.56164953 165.7285065 0
99.44587562 166.8394308 0
90.37295954 177.1592818 0
90.64510791 167.7818848 0
159.1032621 43.74122484 0
167.3440093 48.49662703 0
164.2370211 30.43809326 0
149.219008 27.40594087 0
149.4941859 65.6769445 0
156.5977704 51.67564443 0
150.8784147 74.76274621 0
145.9772882 67.85820546 0
142.3664619 83.25496176 0
147.9422934 77.36663597 0
73.58474439 146.9284094 0
71.05410985 155.0906975 0
67.77767012 158.531643 0
56.22494438 154.9307443 0
47.82814311 166.7169184 0
45.75542412 166.6556173 0
21.20522087 176.4594094 0
19.92142082 169.2361433 0
13.77093143 157.5967053 0
22.31963377 153.6255132 0
56.20768375 199.9186913 0
61.59541568 204.6742696 0
76.7805237 184.6315629 0
89.53490422 187.4183521 0
76.00055667 174.8625521 0
74.05001026 192.8460541 0
82.27146021 190.695555 0
91.077648 188.1307182 0
94.98589289 192.5972517 0
92.37522259 189.2703029 0
97.21276525 170.6839403 0
89.02306163 164.7843571 0
100.4874364 173.1782565 0
104.11207 171.5864036 0
[...]
POINT_DATA 1662
SCALARS GLOBAL_ID int 1
LOOKUP_TABLE default
-1 
-1 
-1 
-1 
-1 
-1 
-1 
-1 
-1 
-1 
-1 
-1 
-1 
-1 
-1 
-1 
-1 
-1 
-1 
-1 
-1 
-1 
-1 
-1 
-1 
-1 
-1 
-1 
-1 
-1 
-1 
-1 
-1 
-1 
-1 
-1 
-1 
-1 
-1 
-1 
-1 
-1 
-1 
-1 
-1 
-1 
-1 
-1 
-1 
-1 
-1 
-1 
-1 
-1 
-1 
-1 
-1 
-1 
-1 
-1 
-1 
-1 
-1 
-1 
-1 
-1 
-1 
-1 
-1 
-1 
-1 
-1 
-1 
-1 
-1 
-1 
-1 
-1 
-1 
-1 
-1 
-1 
-1 
-1 
-1 
-1 
-1 
-1 
-1 
-1 
-1 
-1 
-1 
-1 
-1 
-1 
-1 
-1 
-1 
-1 
-1 
-1 
-1 
-1 
-1 
-1 
-1 
-1 
-1 
-1 
-1 
-1 
-1 
-1 
-1 
-1 
-1 
-1 
-1 
-1 
-1 
-1 
-1 
-1 
-1 
-1 
-1 
-1 
-1 
-1 
-1 
-1 
-1 
-1 
-1 
-1 
-1 
-1 
-1 
-1 
-1 
-1 
-1 
-1 
-1 
-1 
-1 
-1 
-1 
-1 
-1 
-1 
-1 
-1 
-1 
-1 
-1 
-1 
-1 
-1 
-1 
-1 
-1 
-1 
-1 
-1 
-1 
-1 
-1 
-1 
-1 
-1 
-1 
-1 
-1 
-1 
-1 
-1 
-1 
-1 
-1 
-1 
-1 
-1 
-1 
-1 
-1 
-1 
-1 
-1 
-1 
-1 
-1 
-1 
-1 
-1 
-1 
-1 
-1 
-1 
-1 
-1 
-1 
-1 
-1 
-1 
-1 
-1 
-1 
-1 
-1 
-1 
-1 
-1 
-1 
-1 
-1 
-1 
-1 
-1 
-1 
-1 
-1 
-1 
-1 
-1 
-1 
-1 
-1 
-1 
-1 
-1 
-1 
-1 
-1 
-1 
-1 
-1 
-1 
-1 
-1 
-1 
-1 
-1 
-1 
-1 
-1 
-1 
-1 
-1 
-1 
-1 
-1 
-1 
-1 
-1 
-1 
-1 
-1 
-1 
-1 
-1 
-1 
-1 
-1 
-1 
-1 
-1 
-1 
-1 
-1 
-1 
-1 
-1 
-1 
-1 
-1 
-1 
-1 
-1 
-1 
-1 
-1 
-1 
-1 
-1 
-1 
-1 
-1 
-1 
-1 
-1 
-1 
-1 
-1 
-1 
-1 
-1 
-1 
-1 
-1 
-1 
-1 
-1 
-1 
-1 
-1 
-1 
-1 
-1 
-1 
-1 
-1 
-1 
-1 
-1 
-1 
-1 
-1 
-1 
-1 
-1 
-1 
-1 
-1 
-1 
-1 
-1 
-1 
-1 
-1 
-1 
-1 
-1 
-1 
-1 
-1 
-1 
-1 
-1 
-1 
-1 
-1 
-1 
-1 
-1 
-1 
-1 
-1 
-1 
-1 
-1 
-1 
-1 
-1 
-1 
-1 
-1 
-1 
-1 
-1 
-1 
-1 
-1 
-1 
-1 
-1 
-1 
-1 
-1 
-1 
-1 
-1 
-1 
-1 
-1 
-1 
-1 
-1 
-1 
-1 
-1 
-1 
-1 
-1 
-1 
-1 
-1 
-1 
-1 
-1 
-1 
-1 
-1 
-1 
-1 
-1 
-1 
-1 
-1 
-1 
-1 
-1 
-1 
-1 
-1 
-1 
-1 
-1 
-1 
-1 
-1 
-1 
-1 
-1 
-1 
-1 
-1 
-1 
-1 
-1 
-1 
-1 
-1 
-1 
-1 
-1 
-1 
-1 
-1 
-1 
-1 
-1 
-1 
-1 
-1 
-1 
-1 
-1 
-1 
-1 
-1 
-1 
-1 
-1 
-1 
-1 
-1 
-1 
-1 
-1 
-1 
-1 
-1 
-1 
-1 
-1 
-1 
-1 
-1 
-1 
-1 
-1 
-1 
-1 
-1 
-1 
-1 
-1 
-1 
-1 
-1 
-1 
-1 
-1 
-1 
-1 
-1 
-1 
-1 
-1 
-1 
-1 
-1 
-1 
-1 
-1 
-1 
-1 
-1 
-1 
-1 
-1 
-1 
-1 
-1 
-1 
-1 
-1 
-1 
-1 
-1 
-1 
-1 
-1 
-1 
-1 
-1 
-1 
-1 
-1 
-1 
-1 
-1 
-1 
-1 
-1 
-1 
-1 
-1 
-1 
-1 
-1 
-1 
-1 
-1 
-1 
-1 
-1 
-1 
-1 
-1 
-1 
-1 
-1 
-1 
-1 
-1 
-1 
-1 
-1 
-1 
-1 
-1 
-1 
-1 
-1 
-1 
-1 
-1 
-1 
-1 
-1 
-1 
-1 
-1 
-1 
-1 
-1 
-1 
-1 
-1 
-1 
-1 
-1 
-1 
-1 
-1 
-1 
-1 
-1 
-1 
-1 
-1 
-1 
-1 
-1 
-1 
-1 
-1 
-1 
-1 
-1 
-1 
-1 
-1 
-1 
-1 
-1 
-1 
-1 
-1 
-1 
-1 
-1 
-1 
-1 
-1 
-1 
-1 
-1 
-1 
-1 
-1 
-1 
-1 
-1 
-1 
-1 
-1 
-1 
-1 
-1 
-1 
-1 
-1 
-1 
-1 
-1 
-1 
-1 
-1 
-1 
-1 
-1 
-1 
-1 
-1 
-1 
-1 
-1 
-1 
-1 
-1 
-1 
-1 
-1 
-1 
-1 
-1 
-1 
-1 
-1 
-1 
-1 
-1 
-1 
-1 
-1 
-1 
-1 
-1 
-1 
-1 
-1 
-1 
-1 
-1 
-1 
-1 
-1 
-1 
-1 
-1 
-1 
-1 
-1 
-1 
-1 
-1 
-1 
-1 
-1 
-1 
-1 
-1 
-1 
-1 
-1 
-1 
-1 
-1 
-1 
-1 
-1 
-1 
-1 
-1 
-1 
-1 
-1 
-1 
-1 
-1 
-1 
-1 
-1 
-1 
-1 
-1 
-1 
-1 
-1 
-1 
-1 
-1 
-1 
-1 
-1 
-1 
-1 
-1 
-1 
-1 
-1 
-1 
-1 
-1 
-1 
-1 
-1 
-1 
-1 
-1 
-1 
-1 
-1 
-1 
-1 
-1 
-1 
-1 
-1 
-1 
-1 
-1 
-1 
-1 
-1 
-1 
-1 
-1 
-1 
-1 
-1 
-1 
-1 
-1 
-1 
-1 
-1 
-1 
-1 
-1 
-1 
-1 
-1 
-1 
-1 
-1 
-1 
-1 
-1 
-1 
-1 
-1 
-1 
-1 
-1 
-1 
-1 
-1 
-1 
-1 
-1 
-1 
-1 
-1 
-1 
-1 
-1 
-1 
-1 
-1 
-1 
-1 
-1 
-1 
-1 
-1 
-1 
-1 
-1 
-1 
-1 
-1 
-1 
-1 
-1 
-1 
-1 
-1 
-1 
-1 
-1 
-1 
-1 
-1 
-1 
-1 
-1 
-1 
-1 
-1 
-1 
-1 
-1 
-1 
-1 
-1 
-1 
-1 
-1 
-1 
-1 
-1 
-1 
-1 
-1 
-1 
-1 
-1 
-1 
-1 
-1 
-1 
-1 
-1 
-1 
-1 
-1 
-1 
-1 
-1 
-1 
-1 
-1 
-1 
-1 
-1 
-1 
-1 
-1 
-1 
-1 
-1 
-1 
-1 
-1 
-1 
-1 
-1 
-1 
-1 
-1 
-1 
-1 
-1 
-1 
-1 
-1 
-1 
-1 
-1 
-1 
-1 
-1 
-1 
-1 
-1 
-1 
-1 
-1 
-1 
-1 
-1 
-1 
-1 
-1 
-1 
-1 
-1 
-1 
-1 
-1 
-1 
-1 
-1 
-1 
-1 
-1 
-1 
-1 
-1 
-1 
-1 
-1 
-1 
-1 
-1 
-1 
-1 
-1 
-1 
-1 
-1 
-1 
-1 
-1 
-1 
-1 
-1 
-1 
-1 
-1 
-1 
-1 
-1 
-1 
-1 
-1 
-1 
-1 
-1 
-1 
-1 
-1 
-1 
-1 
-1 
-1 
-1 
-1 
-1 
-1 
-1 
-1 
-1 
-1 
-1 
-1 
-1 
-1 
-1 
-1 
-1 
-1 
-1 
-1 
-1 
-1 
-1 
-1 
-1 
-1 
-1 
-1 
-1 
-1 
-1 
-1 
-1 
-1 
-1 
-1 
-1 
-1 
-1 
-1 
-1 
-1 
-1 
-1 
-1 
-1 
-1 
-1 
-1 
-1 
-1 
-1 
-1 
-1 
-1 
-1 
-1 
-1 
-1 
-1 
-1 
-1 
-1 
-1 
-1 
-1 
-1 
-1 
-1 
-1 
-1 
-1 
-1 
-1 
-1 
-1 
-1 
-1 
-1 
-1 
-1 
-1 
-1 
-1 
-1 
-1 
-1 
-1 
-1 
-1 
-1 
-1 
-1 
-1 
-1 
-1 
-1 
-1 
-1 
-1 
-1 
-1 
-1 
-1 
-1 
-1 
-1 
-1 
-1 
-1 
-1 
-1 
-1 
-1 
-1 
-1 
-1 
-1 
-1 
-1 
-1 
-1 
-1 
-1 
-1 
-1 
-1 
-1 
-1 
-1 
-1 
-1 
-1 
-1 
-1 
-1 
-1 
-1 
-1 
-1 
-1 
-1 
-1 
-1 
-1 
-1 
-1 
-1 
-1 
-1 
-1 
-1 
-1 
-1 
-1 
-1 
-1 
-1 
-1 
-1 
-1 
-1 
-1 
-1 
-1 
-1 
-1 
-1 
-1 
-1 
-1 
-1 
-1 
-1 
-1 
-1 
-1 
-1 
-1 
-1 
-1 
-1 
-1 
-1 
-1 
-1 
-1 
-1 
-1 
-1 
-1 
-1 
-1 
-1 
-1 
-1 
-1 
-1 
-1 
-1 
-1 
-1 
-1 
-1 
-1 
-1 
-1 
-1 
-1 
-1 
-1 
-1 
-1 
-1 
-1 
-1 
-1 
-1 
-1 
-1 
-1 
-1 
-1 
-1 
-1 
-1 
-1 
-1 
-1 
-1 
-1 
-1 
-1 
-1 
-1 
-1 
-1 
-1 
-1 
-1 
-1 
-1 
-1 
-1 
-1 
-1 
-1 
-1 
-1 
-1 
-1 
-1 
-1 
-1 
-1 
-1 
-1 
-1 
-1 
-1 
-1 
-1 
-1 
-1 
-1 
-1 
-1 
-1 
-1 
-1 
-1 
-1 
-1 
-1 
-1 
-1 
-1 
-1 
-1 
-1 
-1 
-1 
-1 
-1 
-1 
-1 
-1 
-1 
-1 
-1 
-1 
-1 
-1 
-1 
-1 
-1 
-1 
-1 
-1 
-1 
-1 
-1 
-1 
-1 
-1 
-1 
-1 
-1 
-1 
-1 
-1 
-1 
-1 
-1 
-1 
-1 
-1 
-1 
-1 
-1 
-1 
-1 
-1 
-1 
-1 
-1 
-1 
-1 
-1 
-1 
-1 
-1 
-1 
-1 
-1 
-1 
-1 
-1 
-1 
-1 
-1 
-1 
-1 
-1 
-1 
-1 
-1 
-1 
-1 
-1 
-1 
-1 
-1 
-1 
-1 
-1 
-1 
-1 
-1 
-1 
-1 
-1 
-1 
-1 
-1 
-1 
-1 
-1 
-1 
-1 
-1 
-1 
-1 
-1 
-1 
-1 
-1 
-1 
-1 
-1 
-1 
-1 
-1 
-1 
-1 
-1 
-1 
-1 
-1 
-1 
-1 
-1 
-1 
-1 
-1 
-1 
-1 
-1 
-1 
-1 
-1 
-1 
-1 
-1 
-1 
-1 
-1 
-1 
-1 
-1 
-1 
-1 
-1 
-1 
-1 
-1 
-1 
-1 
-1 
-1 
-1 
-1 
-1 
-1 
-1 
-1 
-1 
-1 
-1 
-1 
-1 
-1 
-1 
-1 
-1 
-1 
-1 
-1 
-1 
-1 
-1 
-1 
-1 
-1 
-1 
-1 
-1 
-1 
-1 
-1 
-1 
-1 
-1 
-1 
-1 
-1 
-1 
-1 
-1 
-1 
-1 
-1 
-1 
-1 
-1 
-1 
-1 
-1 
-1 
-1 
-1 
-1 
-1 
-1 
-1 
-1 
-1 
-1 
-1 
-1 
-1 
-1 
-1 
-1 
-1 
-1 
-1 
-1 
-1 
-1 
-1 
-1 
-1 
-1 
-1 
-1 
-1 
-1 
-1 
-1 
-1 
-1 
-1 
-1 
-1 
-1 
-1 
-1 
-1 
-1 
-1 
-1 
-1 
-1 
-1 
-1 
-1 
-1 
-1 
-1 
-1 
-1 
-1 
-1 
-1 
-1 
-1 
-1 
-1 
-1 
-1 
-1 
-1 
-1 
-1 
-1 
-1 
-1 
-1 
-1 
-1 
-1 
-1 
-1 
-1 
-1 
-1 
-1 
-1 
-1 
-1 
-1 
-1 
-1 
-1 
-1 
-1 
-1 
-1 
-1 
-1 
-1 
-1 
-1 
-1 
-1 
-1 
-1 
-1 
-1 
-1 
-1 
-1 
-1 
-1 
-1 
-1 
-1 
-1 
-1 
-1 
-1 
-1 
-1 
-1 
-1 
-1 
-1 
-1 
-1 
-1 
-1 
-1 
-1 
-1 
-1 
-1 
-1 
-1 
-1 
-1 
-1 
-1 
-1 
-1 
-1 
-1 
-1 
-1 
-1 
-1 
-1 
-1 
-1 
-1 
-1 
-1 
-1 
-1 
-1 
-1 
-1 
-1 
-1 
-1 
-1 
-1 
-1 
-1 
-1 
-1 
-1 
-1 
-1 
-1 
-1 
-1 
-1 
-1 
-1 
-1 
-1 
-1 
-1 
-1 
-1 
-1 
-1 
-1 
-1 
-1 
-1 
-1 
-1 
-1 
-1 
-1 
-1 
-1 
-1 
-1 
-1 
-1 
-1 
-1 
-1 
-1 
-1 
-1 
-1 
-1 
-1 
-1 
-1 
-1 
-1 
-1 
-1 
-1 
-1 
-1 
-1 
-1 
-1 
-1 
-1 
-1 
-1 
-1 
-1 
-1 
-1 
-1 
-1 
-1 
-1 
-1 
-1 
-1 
-1 
-1 
-1 
-1 
-1 
-1 
-1 
-1 
-1 
-1 
-1 
-1 
-1 
-1 
-1 
-1 
-1 
-1 
-1 
-1 
-1 
-1 
-1 
-1 
VECTORS G_average double
-1.841349147 -3.099919564 0 
-1.754051917 -3.12537604 0 
-3.822172921 -0.582877079 0 
-3.822599291 -1.000635509 0 
-4.265210317 -0.9911400272 0 
-4.156772198 -0.6510705899 0 
-3.875207089 -0.9541446315 0 
-4.385943423 -1.33989432 0 
-1.334662996 -4.685913937 0 
-1.555669822 -4.64935973 0 
-0.8034305463 -4.182311478 0 
-0.6800704145 -4.604450653 0 
-0.5867039556 -4.221082563 0 
-0.577145423 -4.254944577 0 
-1.325780356 -4.509951757 0 
-1.438930116 -4.220794483 0 
-3.79825325 -1.084394395 0 
-4.11317522 -1.420443788 0 
-4.207883855 -1.638028693 0 
-4.633442536 -1.137120422 0 
-4.651211413 -1.455449714 0 
-4.582082541 -1.69318109 0 
-1.786960166 -3.097345656 0 
-1.715904087 -3.059998825 0 
-0.588057339 -3.831607352 0 
-1.053370787 -4.200577195 0 
-3.800127016 -0.2422948696 0 
-3.822959902 -0.5973087855 0 
-4.961318158 -1.528407955 0 
-4.719036294 -1.421421169 0 
-4.224521402 -0.1947559894 0 
-4.120863972 -0.9382519999 0 
-4.900905217 -1.628138307 0 
-4.887263412 -1.328608817 0 
-3.608870768 -0.6009786774 0 
-3.639596615 -0.7157812788 0 
-3.388041682 -0.900190526 0 
-3.615851197 -0.9397292412 0 
-3.783538261 -0.5964829961 0 
-4.276403447 -1.098173496 0 
-1.497869015 -4.732176106 0 
-1.537223006 -5.009189636 0 
-1.239066946 -4.818005821 0 
-1.005062968 -3.918673491 0 
-0.2061897796 -3.708696298 0 
-0.6583806866 -3.825714845 0 
-1.022729454 -3.830004351 0 
-0.3082177942 -4.245442259 0 
-0.5271787212 -3.445423634 0 
-0.2487576424 -3.515051626 0 
-0.5719099407 -3.873631365 0 
-0.7197364095 -3.510894171 0 
-1.649579174 -3.780982012 0 
-1.298358276 -3.889079198 0 
-1.894025087 -3.289553617 0 
-1.67541869 -3.521957941 0 
-1.613494126 -3.391615277 0 
-2.038650471 -3.178378415 0 
-1.778103838 -4.044905984 0 
-1.009724096 -4.581964066 0 
-1.525251421 -4.967423345 0 
-1.719637895 -4.777896856 0 
-3.02147046 -1.791988668 0 
-3.126921391 -1.857537951 0 
-3.009030989 -1.756344574 0 
-3.019130951 -1.793272934 0 
-3.318235853 -1.734678868 0 
-3.146144265 -1.72628654 0 
-1.733700503 -3.005038477 0 
-1.68625873 -3.083774179 0 
-5.022159184 -1.638749552 0 
-4.916169725 -1.570897918 0 
-1.683194021 -4.864113921 0 
-1.638441587 -5.023508628 0 
-1.67277019 -3.061980526 0 
-1.596829088 -2.956587854 0 
-1.051726219 -4.877270059 0 
-1.220896193 -3.483440114 0 
-2.944130433 -1.689633905 0 
-3.112120212 -1.375247416 0 
-3.78725146 -1.417508954 0 
-3.360673642 -1.357943769 0 
-4.179207717 -1.366423369 0 
-3.52374151 -0.7143892528 0 
-5.417259318 -0.6019591961 0 
-5.436499674 -0.580328082 0 
-4.536093323 -0.09982203114 0 
-4.313214004 0.1659038136 0 
-3.750236076 -0.1879740163 0 
-4.402110023 -0.3854053346 0 
-4.630558152 -1.582227528 0 
-4.898641444 -1.039938826 0 
-5.042842044 -1.195357783 0 
-4.986154055 -0.9094558913 0 
-5.055395238 -0.618250635 0 
-4.520726505 -0.5601932957 0 
-3.634766572 -1.329823158 0 
-3.432798628 -0.7651503908 0 
-3.42025386 -0.2938891034 0 
-3.813416358 -0.9352358203 0 
-3.482212344 -0.5940025198 0 
-3.569548567 -0.2587415503 0 
-3.588222657 -0.2583458772 0 
-3.603650359 0.1505819341 0 
-4.235754454 0.3722217587 0 
-3.97866559 -0.01295062843 0 
-3.811266149 -0.07325815575 0 
-4.089358443 0.168566548 0 
-1.375429306 -4.342034028 0 
-1.437976713 -4.941588072 0 
-0.6089504015 -4.596824114 0 
-1.449886223 -4.774309731 0 
-0.6471190241 -4.963682812 0 
-0.5884364652 -3.802578521 0 
-0.1507049437 -4.164201832 0 
-0.4654928905 -3.949166413 0 
-0.4309929754 -4.572078901 0 
-0.4959197265 -4.329556512 0 
-0.6108797054 -5.459361923 0 
-0.5499974971 -5.417520994 0 
-0.8269116172 -4.990542283 0 
-0.7700621696 -5.403257153 0 
0.1542994033 -4.256412564 0 
-0.2339964543 -3.750251921 0 
-0.2096880498 -3.551352373 0 
-0.2642243096 -3.617830959 0 
-0.1915037124 -3.957763273 0 
-0.7148530136 -3.384047115 0 
-0.7937457432 -3.561773712 0 
-0.7033847083 -3.454676228 0 
-1.771965532 -3.208861115 0 
-2.038543095 -3.248918403 0 
-1.746671099 -3.007319706 0 
-1.76037478 -3.261950857 0 
-1.83367573 -4.593392163 0 
-1.887728835 -4.190922203 0 
-1.741577128 -4.587692056 0 
-1.772455524 -4.983077254 0 
-1.712464443 -5.001861604 0 
-1.864729384 -4.646573046 0 
-1.629962544 -4.748726034 0 
-1.859432268 -4.712351596 0 
-3.371804158 -1.644376192 0 
-4.323155448 -1.712335163 0 
-3.162602601 -1.651547883 0 
-3.348115603 -1.94225994 0 
-3.064166256 -1.854908356 0 
-3.45285591 -1.805830505 0 
-3.03848852 -1.755851471 0 
-3.014397106 -1.852820903 0 
-3.813965993 -1.831462838 0 
-3.383026342 -1.746624318 0 
-4.58332428 -2.179118783 0 
-4.612473081 -1.916980168 0 
-4.783814143 -1.636807105 0 
-4.960414918 -1.81382495 0 
-4.966265102 -1.754772145 0 
-4.817775658 -1.674696113 0 
-4.558534052 -1.845078043 0 
-4.797456674 -1.682600713 0 
-3.000540799 -1.745504283 0 
-3.063706869 -1.692627539 0 
-2.986154194 -2.658084672 0 
-3.75929957 -2.221144621 0 
-3.016612399 -1.604397301 0 
-3.086716888 -1.745749476 0 
-1.760172801 -3.073412982 0 
-1.624106861 -3.10677593 0 
-1.766834615 -3.027606642 0 
-1.696741831 -2.903823396 0 
-2.31850091 -3.497611822 0 
-2.267451977 -3.026043916 0 
-1.588902454 -3.01640059 0 
-1.788911079 -3.029738695 0 
-5.415618726 -0.9839762565 0 
-5.49262144 -0.7182148159 0 
-4.963089844 -1.727764656 0 
-5.030322919 -1.707166107 0 
-4.714803259 -1.874083021 0 
-5.046892388 -1.867948443 0 
-4.829970013 -2.278969842 0 
-4.164270866 -1.82720462 0 
-1.894903739 -5.039695583 0 
-2.07848683 -4.92113488 0 
-1.483157315 -4.612327678 0 
-1.239217502 -4.597734766 0 
-1.001684389 -5.089052417 0 
-1.30558047 -4.997455685 0 
-0.1289150274 -3.074163676 0 
-0.2122890841 -3.786257546 0 
-0.905760472 -3.358573758 0 
-0.8535105382 -3.528364339 0 
-1.751805976 -3.28357656 0 
-1.610362894 -3.028249249 0 
-1.527358632 -2.941025985 0 
-1.687319016 -3.133916242 0 
-1.929555981 -3.772225998 0 
-1.384955375 -3.306917626 0 
-2.559066662 -3.815677369 0 
-2.488916077 -4.239641375 0 
-2.953047234 -4.664197671 0 
-2.621517661 -4.581337813 0 
-4.503970996 -2.8964285 0 
-4.537170552 -2.620804333 0 
-4.16545474 -2.962266271 0 
-3.456431264 -2.227204447 0 
-3.014007593 -1.484638682 0 
-3.029267583 -1.675196801 0 
-3.040275488 -1.42439689 0 
-3.255499568 -1.803572102 0 
-3.979808249 -1.744566337 0 
-3.280636116 -0.9769965529 0 
-5.384331046 -0.4982235048 0 
-5.422986579 -0.5656260746 0 
-5.641983391 -0.6562155093 0 
-5.399694547 -0.5475804804 0 
-4.97249516 -1.055927657 0 
-5.284449726 -1.013870389 0 
-2.651556108 -3.443866911 0 
-1.839700208 -3.826113493 0 
-0.05114413865 -4.341462188 0 
-0.04070559135 -4.856559494 0 
-3.037337016 -4.62193085 0 
-2.853932402 -4.004477582 0 
-4.086978305 -0.2830824449 0 
-4.835710312 -0.6521650785 0 
-3.502336375 -0.2607596289 0 
-3.834747603 -0.6902237213 0 
-3.407198873 -0.2489481269 0 
-3.436217755 -0.304986165 0 
-3.828746304 -0.5975878522 0 
-3.954311825 0.1130216973 0 
-4.258772453 -0.1847468496 0 
-3.41132916 -0.8995808377 0 
-4.962319251 -1.562262731 0 
-4.940669726 -1.41182732 0 
-4.981294021 -1.658188419 0 
-5.043721264 -1.641391312 0 
-5.065892898 -1.482501231 0 
-4.73323881 -0.6196747592 0 
-4.673795078 -1.681795594 0 
-4.822896391 -1.631233425 0 
-4.643532502 -1.492034016 0 
-5.300715487 -1.038123954 0 
-4.869252667 -1.083899373 0 
-5.321410954 -0.2136316103 0 
-4.266092764 0.2326262705 0 
-3.82477907 0.4131034672 0 
-3.671696773 -0.6239741401 0 
-3.482259547 -0.3785955708 0 
-3.652572987 -0.2129910364 0 
-3.449595716 -0.9222166891 0 
-3.542739714 -0.2054207888 0 
-3.341277857 -0.1015888015 0 
-4.365233129 0.4765987782 0 
-4.251285063 0.4212215243 0 
-1.624780983 -5.054087204 0 
-1.585861938 -4.681810883 0 
-1.100283324 -5.321615871 0 
-1.584152369 -4.973120797 0 
-0.01371829711 -3.612506381 0 
-0.2789354589 -3.658121429 0 
-0.891763434 -5.033979132 0 
-0.5809807294 -3.5831837 0 
-0.219322078 -3.788365813 0 
-0.09871345756 -3.649788555 0 
-0.8311762496 -4.352459182 0 
-0.6580188732 -3.805839487 0 
-1.020620082 -4.100375609 0 
-0.3007354839 -5.069203788 0 
-0.6094442216 -5.420505285 0 
-0.5181046976 -5.676406113 0 
-0.5861615056 -5.434383031 0 
-0.173843247 -5.380511137 0 
-1.023741849 -5.384201008 0 
-0.319385501 -5.277998995 0 
-1.418726128 -4.616600658 0 
-1.656985137 -4.939597851 0 
-1.434757724 -4.236772568 0 
-1.050735631 -4.622490984 0 
-0.4059944853 -3.592114485 0 
-0.6921472204 -3.502485558 0 
0.2209775191 -4.166163241 0 
-0.166768872 -4.257499066 0 
0.38765765 -4.178162337 0 
0.4645811049 -4.16358018 0 
0.6045392492 -4.167231926 0 
-0.3733650413 -4.147453499 0 
-0.1287198686 -3.353610648 0 
0.1302386778 -3.380821826 0 
-0.6260226845 -3.013092092 0 
-0.07433837263 -3.48998006 0 
0.1767829187 -4.623434439 0 
-0.9072509136 -3.489841605 0 
-0.8321594444 -3.698188583 0 
-2.072435087 -3.875711348 0 
-1.81853633 -2.98268946 0 
-0.9262415952 -3.483021021 0 
-1.596047246 -3.041532076 0 
-1.863375973 -3.035218081 0 
-1.765661818 -4.961757894 0 
-1.693957977 -4.953772155 0 
-1.627192042 -4.923452382 0 
-1.782450415 -4.852161196 0 
-1.685122761 -4.964321282 0 
-1.794978367 -4.914317624 0 
-2.166762451 -4.368626456 0 
-2.646396921 -4.980991907 0 
-2.63219595 -4.98458587 0 
-2.999776911 -4.276438594 0 
-4.191817983 -0.5851347729 0 
-3.565572565 -1.730417677 0 
-3.063622532 -2.161009425 0 
-3.589721669 -1.929219763 0 
-3.164300599 -2.003641298 0 
-3.092406746 -1.460876629 0 
-4.62052684 -2.919864675 0 
-4.830203874 -2.607103778 0 
-3.391420206 -2.916642932 0 
-4.424696509 -1.841679549 0 
-4.753118921 -3.205261056 0 
-4.671498563 -3.088953099 0 
-4.702298988 -2.476406018 0 
-4.288852271 -2.410797126 0 
-4.62910608 -2.829336658 0 
-4.471967154 -3.479524971 0 
-4.933859367 -1.554713354 0 
-4.610875677 -1.464900564 0 
-4.927135932 -1.757234591 0 
-4.937863632 -1.654764421 0 
-4.204791755 -0.8867522266 0 
-4.735923617 -1.810267406 0 
-3.522766781 -0.7098526704 0 
-3.402309879 -1.505050602 0 
-2.730347804 -2.932230229 0 
-2.660526648 -3.122627304 0 
-3.050503031 -1.764262722 0 
-3.824636343 -1.59725028 0 
-2.786918371 -1.624648124 0 
-2.839594936 -1.907234192 0 
-3.068031365 -1.641915092 0 
-3.020242618 -1.720061088 0 
-1.79998722 -3.022384484 0 
-1.77953009 -3.317501083 0 
-1.420670861 -3.127550607 0 
-1.4264322 -3.042404937 0 
-2.969477202 -3.384694185 0 
-3.01533586 -3.116252785 0 
-1.424797401 -2.788171975 0 
-2.170619369 -3.381472387 0 
-5.0191063 -1.356815937 0 
-4.790589359 -1.711125228 0 
-5.29141285 -0.6417737451 0 
-6.078917067 -1.02690174 0 
-4.970771516 -2.094265489 0 
-4.987214345 -1.685516779 0 
-4.313036395 -2.153987033 0 
-5.00563436 -2.198959686 0 
-4.861427662 -2.653140468 0 
-4.605684358 -2.579133486 0 
-2.260131083 -4.699018274 0 
-1.591225393 -4.523285564 0 
-1.479491062 -4.818719509 0 
-1.70845699 -5.012120718 0 
-1.63443583 -4.820972697 0 
-1.743376021 -4.695320536 0 
-0.6403990689 -5.415522241 0 
-0.5831646613 -5.415412813 0 
-0.6125498184 -5.791962813 0 
-0.6277275697 -5.923836915 0 
-0.5187002283 -3.761659934 0 
-0.2210138424 -3.13100782 0 
-1.500923363 -3.35225288 0 
-1.857245394 -3.042179847 0 
-2.034356276 -3.497689097 0 
-1.056793118 -3.115229443 0 
-1.446487305 -3.013562134 0 
-1.865755611 -3.027601371 0 
-1.923414044 -2.276488694 0 
-2.121693827 -2.702297965 0 
-2.642463876 -2.843490054 0 
-2.133678471 -4.166718203 0 
-2.98311493 -2.555489874 0 
-3.345156296 -2.621794221 0 
-2.771492277 -5.014324041 0 
-3.084765975 -4.702792523 0 
-4.850279512 -2.890098738 0 
-4.263640785 -3.332639646 0 
-3.26254785 -3.069074474 0 
-3.848427279 -2.674051417 0 
-3.302486672 -1.988681428 0 
-2.629737504 -2.487866873 0 
-2.080535934 -3.022208432 0 
-2.37619414 -2.939153957 0 
-2.724767873 -1.627268198 0 
-2.829421842 -1.820463842 0 
-3.056783333 -1.444179598 0 
-4.081372109 -1.908492032 0 
-4.262910914 -1.956582596 0 
-3.520277102 -0.6959830636 0 
-3.585508526 0.2663629388 0 
-4.159854583 0.6343228514 0 
-5.419069339 -0.6745838478 0 
-5.389772953 -0.617765651 0 
-5.422604228 -0.2299442704 0 
-5.392913786 -0.5702422992 0 
-5.804960833 -0.2390288026 0 
-5.430673884 -0.571348995 0 
-5.594154578 -0.5179413963 0 
-5.40730302 -0.6629880937 0 
-4.308197489 -0.8947216604 0 
-5.016982675 -0.5713461157 0 
-2.165312704 -2.569832853 0 
-1.568332723 -3.602838716 0 
-2.718811281 -4.71520805 0 
-3.003446803 -3.79547681 0 
-2.975739196 -4.549191408 0 
-2.573680473 -4.593921709 0 
-0.6469600478 -5.415833461 0 
-0.633275994 -5.266514516 0 
0.2457749654 -4.008058847 0 
0.3715670613 -4.541336462 0 
-0.6051859863 -5.362186783 0 
-0.6505055129 -5.451221592 0 
-3.05522475 -4.67889032 0 
-3.215965197 -4.605787831 0 
-4.980642336 -2.644578138 0 
-5.010623352 -2.778856995 0 
-4.323225956 0.3221588281 0 
-4.882554408 0.232254871 0 
-5.432637497 -0.6238191226 0 
-5.420066892 -0.4546184182 0 
-3.481922756 0.01028566482 0 
-4.091673136 -0.9813990447 0 
-3.803198553 -0.1685884651 0 
-3.617134081 -0.002451259461 0 
-3.848667854 -0.03405031842 0 
-3.39882281 -0.5936294324 0 
-4.582925212 0.6126701177 0 
-4.742408337 -1.068293218 0 
-4.993350486 -1.875047537 0 
-4.618073802 -1.773075443 0 
-5.036851637 -1.826762103 0 
-5.207240282 -1.204636023 0 
-5.213794483 -1.850517309 0 
-5.328171264 -1.448915713 0 
-4.781434268 -1.892792345 0 
-4.626600268 -1.335160964 0 
-4.303405241 -1.749232133 0 
-4.866272711 -0.4371172366 0 
-5.145982257 -0.2081114654 0 
-4.623899895 0.1081250948 0 
-5.4133742 -0.5712073556 0 
-5.435516382 -0.5467648055 0 
-4.126053831 0.6058885067 0 