# vtk DataFile Version 3.0
MOAB 5.5.0
ASCII
DATASET UNSTRUCTURED_GRID
POINTS 1686 double
82.25230654 176.2924732 0
84.65630287 178.7297902 0
187.4611102 54.91642295 0
185.4119627 59.76371164 0
178.8349382 56.44359545 0
183.7320119 53.94165662 0
182.6677669 58.63834954 0
175.2243617 59.09558184 0
55.85204371 172.3728071 0
61.22671107 168.9007018 0
55.61257357 183.0992033 0
53.13287398 179.8100599 0
51.90568942 182.9749789 0
53.61710931 181.9288116 0
58.1580643 174.9181587 0
63.50996504 176.5377358 0
186.8738722 63.55820286 0
177.9800657 64.1170925 0
174.9270477 65.90800788 0
176.3774237 56.25216649 0
172.0011545 59.31557307 0
167.2606051 62.60162014 0
84.18747373 176.664281 0
87.14851751 176.3468464 0
53.03804369 186.8649211 0
57.87550324 181.0572472 0
185.17404 49.74072094 0
185.645678 53.635536 0
166.2767091 52.17080349 0
170.2954505 56.13710952 0
182.9394019 50.05363565 0
182.5762873 55.68929885 0
164.5480875 57.51717807 0
172.1823389 53.71114979 0
189.4202127 53.3591524 0
192.0052431 56.02940945 0
192.5129908 60.19275654 0
190.5843923 57.96854822 0
188.612478 51.23754319 0
180.2249631 59.36190901 0
58.48213002 167.5207848 0
51.65396435 164.2189456 0
53.24742493 173.3684471 0
60.95461195 182.4149889 0
48.79877993 187.3979296 0
55.46119177 186.0585749 0
60.93243219 187.0101399 0
50.59694743 181.5429398 0
49.14573003 190.6562032 0
46.94224274 188.2915455 0
51.4780056 184.9517168 0
54.77358768 191.4886368 0
70.13501853 178.6950902 0
63.8113121 180.1022137 0
77.86048027 175.8627223 0
73.25668977 178.5448888 0
76.22931547 180.6023225 0
79.21363635 174.0896623 0
68.70219622 175.2125996 0
54.15959806 177.8723269 0
53.05771527 167.4596969 0
62.17075485 164.1263512 0
173.3831535 83.49929302 0
176.1880238 81.37998205 0
174.0310509 87.88230391 0
172.5453572 88.63673621 0
179.7874605 78.84829485 0
179.7499094 83.59082896 0
88.2679403 175.1749842 0
87.58873056 177.9557432 0
160.8098592 52.44698208 0
167.0816052 55.34486408 0
59.22978219 164.1991834 0
52.41556514 156.9741665 0
83.53776653 182.1112844 0
87.04631325 184.0689478 0
52.80628053 175.8370031 0
68.61953053 185.9895853 0
184.067071 86.02219353 0
186.1537399 79.33593178 0
180.5638878 67.20940753 0
187.0112044 72.13556812 0
178.0633722 61.16507219 0
194.1330765 56.4707981 0
174.2886557 23.97693136 0
176.3769481 25.94759516 0
190.9338802 33.31336599 0
193.3312804 34.81719052 0
188.7856574 40.38802579 0
188.388262 34.82101428 0
170.5367602 62.16342931 0
176.138161 51.7841303 0
159.6896741 40.4608671 0
162.8918532 36.22815413 0
164.6979835 34.07917532 0
167.2686508 36.97171995 0
184.5519077 67.32831896 0
192.8337607 52.69044617 0
188.884976 47.84717936 0
188.0016236 57.41889497 0
189.7027211 49.60055004 0
187.3797718 45.35859961 0
188.2016852 42.01148144 0
192.2293098 41.61018802 0
196.6294842 37.092814 0
191.2239818 38.15880479 0
190.959725 40.12492445 0
192.9555559 37.35832811 0
60.94436489 174.347806 0
51.26635821 171.8388975 0
51.25910079 179.7193545 0
56.00268601 168.9366241 0
50.23363358 178.2454144 0
52.19635087 189.0154401 0
36.64245963 190.1731305 0
38.51489131 187.5236207 0
33.39586816 187.7950419 0
35.35897617 187.3027544 0
26.58005934 177.0516699 0
25.70708315 172.6538223 0
36.18687323 163.7715323 0
31.01647883 160.9745357 0
35.42989299 193.3301835 0
40.06960389 188.5307556 0
43.44501753 188.6293408 0
45.26113965 187.4381926 0
48.1330671 183.791811 0
51.61957229 192.5999859 0
57.40763961 193.1640981 0
53.07449603 190.9660443 0
88.44309556 170.5070288 0
90.40013978 169.6361494 0
84.53677712 172.1944441 0
81.1707041 178.8085265 0
66.47070771 169.5336721 0
70.37608529 173.2780799 0
63.05848585 166.7862667 0
59.20274391 158.1913897 0
57.54734108 161.6489706 0
68.78907055 169.4248177 0
68.06508415 156.682501 0
68.60822149 152.5574623 0
180.9821942 75.65257785 0
172.1389247 65.12586584 0
181.2559485 81.4204208 0
175.4005461 77.21702884 0
171.9445322 90.6481158 0
168.8458369 88.64108696 0
173.7082597 86.22613791 0
173.9052359 81.69886412 0
166.9817228 88.82682853 0
169.7132217 87.06769894 0
150.129912 72.41162643 0
152.2113289 70.65105861 0
156.5943138 67.70989464 0
154.6475313 63.79696541 0
158.9446761 61.32649186 0
164.7817012 60.74220648 0
170.2499701 67.42032039 0
164.4096836 66.13811289 0
171.8722845 84.24834274 0
177.0129877 86.87322161 0
170.3482395 95.86532494 0
166.4960184 90.95548417 0
182.2401295 86.5694532 0
176.2570785 85.06283362 0
85.45708251 175.5645658 0
86.36612469 179.2389719 0
87.5912603 173.4804767 0
89.81488528 175.5286644 0
92.44732639 166.5352707 0
93.36643692 171.2978038 0
87.04119905 180.9846693 0
88.60817667 172.273503 0
157.1690123 33.97098941 0
160.1410198 29.20735286 0
161.3387541 56.08713926 0
154.9803873 55.67347056 0
152.2181447 68.09570456 0
151.4232294 62.68326919 0
146.6198301 72.03753333 0
154.2263665 73.80858722 0
63.12775746 151.3408002 0
66.50387615 149.8253861 0
44.6796256 164.8689036 0
41.3437499 164.0899025 0
37.97355507 160.3629868 0
40.93522012 160.8637558 0
40.57371977 209.3341576 0
38.62318551 206.0290108 0
64.80927747 194.4253796 0
55.14711922 193.4982613 0
78.84211784 178.5298266 0
83.28293343 184.4500738 0
85.83814832 185.729245 0
88.8548416 184.2673203 0
74.00956854 175.4722227 0
73.03020268 187.6698487 0
92.18624075 164.4160906 0
90.45164283 162.1501053 0
85.15188474 149.1226491 0
79.86056502 148.3503018 0
160.022453 91.27400961 0
161.4166143 89.79311757 0
160.8733939 93.87611823 0
168.4427298 92.22882827 0
184.9452448 84.18485152 0
188.5552456 86.60590607 0
188.6391888 81.22807489 0
177.0846025 79.09817105 0
175.435164 69.06357774 0
194.4741044 67.33626457 0
167.1690046 28.58547244 0
171.8307423 25.58736903 0
177.9869215 30.51097912 0
172.6821019 28.07133556 0
183.1298886 33.26743402 0
181.6614129 32.32236721 0
94.60401463 167.4190217 0
88.93205123 166.6400487 0
34.71621088 191.592282 0
29.9443033 190.6641922 0
91.89711216 157.2225637 0
93.50489367 162.3029802 0
189.0540881 37.1253155 0
185.1008137 32.60195984 0
186.3907098 42.44469489 0
185.8612612 38.4788956 0
189.9836515 46.40997125 0
184.8901732 41.39582304 0
186.4167755 51.28418197 0
182.7247134 46.88229674 0
181.9420037 48.50162337 0
191.3921316 63.43759452 0
169.8172725 50.6468856 0
171.4307628 51.52479951 0
167.9477805 50.55714448 0
163.2142964 50.70296029 0
172.8955309 50.04474384 0
178.4537431 51.22810001 0
165.9623401 45.54900264 0
165.8109454 47.51707058 0
164.1761295 44.27772763 0
159.4588833 37.35070863 0
163.0966714 40.60777125 0
169.5152887 30.55498995 0
203.4086278 36.92545235 0
207.4500609 34.338668 0
198.3653415 56.7872357 0
202.0918384 59.03195994 0
187.2492956 47.18435015 0
194.6570021 53.29835462 0
186.133267 44.2839304 0
192.4960868 44.89235969 0
197.8420155 33.25719174 0
200.0236443 36.90856199 0
53.53651461 161.5148104 0
62.13315084 171.3557788 0
49.36966225 174.9005286 0
50.92600624 169.3663303 0
41.4913403 191.3618919 0
41.74503219 187.59101 0
50.75408924 176.300796 0
50.09090131 189.0068106 0
49.34419142 185.4933547 0
45.00286299 185.3210197 0
35.58500721 185.3361209 0
38.65706768 185.7534901 0
37.15210321 184.6431771 0
28.12360909 187.617533 0
24.49376875 175.5366544 0
30.18493929 176.5602841 0
24.2440228 169.3408624 0
30.96799634 170.3328041 0
34.41702985 158.0304135 0
30.15172726 167.9017584 0
42.97130482 165.0289286 0
48.66397649 164.2228494 0
42.24912961 166.7554365 0
40.20809518 165.2278781 0
57.79621489 201.459494 0
58.18629814 195.2752559 0
35.79275423 204.3809049 0
38.69932912 204.5041138 0
34.97701827 200.1722879 0
37.86635625 196.2406471 0
38.91102491 197.8329435 0
36.7838958 188.3799413 0
44.46793399 191.7214319 0
43.57005305 193.3530406 0
48.6494035 193.7825813 0
43.28633474 190.4351304 0
47.90695091 180.2848633 0
53.97736957 194.7980552 0
57.03410807 191.1544736 0
72.56178637 173.6879044 0
82.33583846 172.2961837 0
64.61821986 189.1389297 0
85.170784 170.1240929 0
90.41778816 172.6675715 0
48.68642194 168.6196481 0
65.95106116 163.3189783 0
64.1447605 160.098851 0
66.64166363 165.2559072 0
67.25559388 161.8104386 0
64.05367337 155.0006737 0
74.09960539 150.48128 0
79.66301234 141.1790234 0
85.66471611 141.308646 0
81.65542891 152.0151033 0
182.2684714 51.9032173 0
178.6866616 73.34194473 0
172.5172691 80.07485063 0
175.8078715 74.65651952 0
169.9537492 90.76696215 0
168.9496098 85.27751399 0
158.248693 90.18631661 0
160.5263051 88.17943663 0
165.6377284 95.96540622 0
163.9206793 87.87980591 0
156.3777472 86.56112855 0
152.4152098 86.73525907 0
145.4759429 75.46627173 0
149.8346832 76.28901735 0
147.0444245 83.88242988 0
155.1987788 83.53854531 0
158.314349 65.94093362 0
157.1900693 69.7472029 0
162.0540206 62.41316333 0
162.3649815 65.10602522 0
180.1754339 54.88605714 0
166.5823205 69.04905931 0
191.3815769 53.92248566 0
184.7990285 75.84745351 0
170.3934605 98.10141285 0
170.898641 102.0187112 0
174.5381772 84.94273057 0
178.5289174 70.29007918 0
176.2235113 90.1925775 0
173.2263209 92.08999259 0
180.4773797 85.78792902 0
185.1860996 87.86268189 0
87.36040757 187.7227584 0
91.4746424 185.602787 0
80.7954027 186.3368695 0
88.89281068 181.3115483 0
96.56164953 165.7285065 0
99.44587562 166.8394308 0
90.37295954 177.1592818 0
90.64510791 167.7818848 0
159.1032621 43.74122484 0
167.3440093 48.49662703 0
164.2370211 30.43809326 0
149.219008 27.40594087 0
149.4941859 65.6769445 0
156.5977704 51.67564443 0
150.8784147 74.76274621 0
145.9772882 67.85820546 0
142.3664619 83.25496176 0
147.9422934 77.36663597 0
73.58474439 146.9284094 0
71.05410985 155.0906975 0
67.77767012 158.531643 0
56.22494438 154.9307443 0
47.82814311 166.7169184 0
45.75542412 166.6556173 0
21.20522087 176.4594094 0
19.92142082 169.2361433 0
13.77093143 157.5967053 0
22.31963377 153.6255132 0
56.20768375 199.9186913 0
61.59541568 204.6742696 0
76.7805237 184.6315629 0
89.53490422 187.4183521 0
76.00055667 174.8625521 0
74.05001026 192.8460541 0
82.27146021 190.695555 0
91.077648 188.1307182 0
94.98589289 192.5972517 0
92.37522259 189.2703029 0
97.21276525 170.6839403 0
89.02306163 164.7843571 0
100.4874364 173.1782565 0
104.11207 171.5864036 0
[...]
POINT_DATA 1686
SCALARS GLOBAL_ID int 1
LOOKUP_TABLE default
-1 
-1 
-1 
-1 
-1 
-1 
-1 
-1 
-1 
-1 
-1 
-1 
-1 
-1 
-1 
-1 
-1 
-1 
-1 
-1 
-1 
-1 
-1 
-1 
-1 
-1 
-1 
-1 
-1 
-1 
-1 
-1 
-1 
-1 
-1 
-1 
-1 
-1 
-1 
-1 
-1 
-1 
-1 
-1 
-1 
-1 
-1 
-1 
-1 
-1 
-1 
-1 
-1 
-1 
-1 
-1 
-1 
-1 
-1 
-1 
-1 
-1 
-1 
-1 
-1 
-1 
-1 
-1 
-1 
-1 
-1 
-1 
-1 
-1 
-1 
-1 
-1 
-1 
-1 
-1 
-1 
-1 
-1 
-1 
-1 
-1 
-1 
-1 
-1 
-1 
-1 
-1 
-1 
-1 
-1 
-1 
-1 
-1 
-1 
-1 
-1 
-1 
-1 
-1 
-1 
-1 
-1 
-1 
-1 
-1 
-1 
-1 
-1 
-1 
-1 
-1 
-1 
-1 
-1 
-1 
-1 
-1 
-1 
-1 
-1 
-1 
-1 
-1 
-1 
-1 
-1 
-1 
-1 
-1 
-1 
-1 
-1 
-1 
-1 
-1 
-1 
-1 
-1 
-1 
-1 
-1 
-1 
-1 
-1 
-1 
-1 
-1 
-1 
-1 
-1 
-1 
-1 
-1 
-1 
-1 
-1 
-1 
-1 
-1 
-1 
-1 
-1 
-1 
-1 
-1 
-1 
-1 
-1 
-1 
-1 
-1 
-1 
-1 
-1 
-1 
-1 
-1 
-1 
-1 
-1 
-1 
-1 
-1 
-1 
-1 
-1 
-1 
-1 
-1 
-1 
-1 
-1 
-1 
-1 
-1 
-1 
-1 
-1 
-1 
-1 
-1 
-1 
-1 
-1 
-1 
-1 
-1 
-1 
-1 
-1 
-1 
-1 
-1 
-1 
-1 
-1 
-1 
-1 
-1 
-1 
-1 
-1 
-1 
-1 
-1 
-1 
-1 
-1 
-1 
-1 
-1 
-1 
-1 
-1 
-1 
-1 
-1 
-1 
-1 
-1 
-1 
-1 
-1 
-1 
-1 
-1 
-1 
-1 
-1 
-1 
-1 
-1 
-1 
-1 
-1 
-1 
-1 
-1 
-1 
-1 
-1 
-1 
-1 
-1 
-1 
-1 
-1 
-1 
-1 
-1 
-1 
-1 
-1 
-1 
-1 
-1 
-1 
-1 
-1 
-1 
-1 
-1 
-1 
-1 
-1 
-1 
-1 
-1 
-1 
-1 
-1 
-1 
-1 
-1 
-1 
-1 
-1 
-1 
-1 
-1 
-1 
-1 
-1 
-1 
-1 
-1 
-1 
-1 
-1 
-1 
-1 
-1 
-1 
-1 
-1 
-1 
-1 
-1 
-1 
-1 
-1 
-1 
-1 
-1 
-1 
-1 
-1 
-1 
-1 
-1 
-1 
-1 
-1 
-1 
-1 
-1 
-1 
-1 
-1 
-1 
-1 
-1 
-1 
-1 
-1 
-1 
-1 
-1 
-1 
-1 
-1 
-1 
-1 
-1 
-1 
-1 
-1 
-1 
-1 
-1 
-1 
-1 
-1 
-1 
-1 
-1 
-1 
-1 
-1 
-1 
-1 
-1 
-1 
-1 
-1 
-1 
-1 
-1 
-1 
-1 
-1 
-1 
-1 
-1 
-1 
-1 
-1 
-1 
-1 
-1 
-1 
-1 
-1 
-1 
-1 
-1 
-1 
-1 
-1 
-1 
-1 
-1 
-1 
-1 
-1 
-1 
-1 
-1 
-1 
-1 
-1 
-1 
-1 
-1 
-1 
-1 
-1 
-1 
-1 
-1 
-1 
-1 
-1 
-1 
-1 
-1 
-1 
-1 
-1 
-1 
-1 
-1 
-1 
-1 
-1 
-1 
-1 
-1 
-1 
-1 
-1 
-1 
-1 
-1 
-1 
-1 
-1 
-1 
-1 
-1 
-1 
-1 
-1 
-1 
-1 
-1 
-1 
-1 
-1 
-1 
-1 
-1 
-1 
-1 
-1 
-1 
-1 
-1 
-1 
-1 
-1 
-1 
-1 
-1 
-1 
-1 
-1 
-1 
-1 
-1 
-1 
-1 
-1 
-1 
-1 
-1 
-1 
-1 
-1 
-1 
-1 
-1 
-1 
-1 
-1 
-1 
-1 
-1 
-1 
-1 
-1 
-1 
-1 
-1 
-1 
-1 
-1 
-1 
-1 
-1 
-1 
-1 
-1 
-1 
-1 
-1 
-1 
-1 
-1 
-1 
-1 
-1 
-1 
-1 
-1 
-1 
-1 
-1 
-1 
-1 
-1 
-1 
-1 
-1 
-1 
-1 
-1 
-1 
-1 
-1 
-1 
-1 
-1 
-1 
-1 
-1 
-1 
-1 
-1 
-1 
-1 
-1 
-1 
-1 
-1 
-1 
-1 
-1 
-1 
-1 
-1 
-1 
-1 
-1 
-1 
-1 
-1 
-1 
-1 
-1 
-1 
-1 
-1 
-1 
-1 
-1 
-1 
-1 
-1 
-1 
-1 
-1 
-1 
-1 
-1 
-1 
-1 
-1 
-1 
-1 
-1 
-1 
-1 
-1 
-1 
-1 
-1 
-1 
-1 
-1 
-1 
-1 
-1 
-1 
-1 
-1 
-1 
-1 
-1 
-1 
-1 
-1 
-1 
-1 
-1 
-1 
-1 
-1 
-1 
-1 
-1 
-1 
-1 
-1 
-1 
-1 
-1 
-1 
-1 
-1 
-1 
-1 
-1 
-1 
-1 
-1 
-1 
-1 
-1 
-1 
-1 
-1 
-1 
-1 
-1 
-1 
-1 
-1 
-1 
-1 
-1 
-1 
-1 
-1 
-1 
-1 
-1 
-1 
-1 
-1 
-1 
-1 
-1 
-1 
-1 
-1 
-1 
-1 
-1 
-1 
-1 
-1 
-1 
-1 
-1 
-1 
-1 
-1 
-1 
-1 
-1 
-1 
-1 
-1 
-1 
-1 
-1 
-1 
-1 
-1 
-1 
-1 
-1 
-1 
-1 
-1 
-1 
-1 
-1 
-1 
-1 
-1 
-1 
-1 
-1 
-1 
-1 
-1 
-1 
-1 
-1 
-1 
-1 
-1 
-1 
-1 
-1 
-1 
-1 
-1 
-1 
-1 
-1 
-1 
-1 
-1 
-1 
-1 
-1 
-1 
-1 
-1 
-1 
-1 
-1 
-1 
-1 
-1 
-1 
-1 
-1 
-1 
-1 
-1 
-1 
-1 
-1 
-1 
-1 
-1 
-1 
-1 
-1 
-1 
-1 
-1 
-1 
-1 
-1 
-1 
-1 
-1 
-1 
-1 
-1 
-1 
-1 
-1 
-1 
-1 
-1 
-1 
-1 
-1 
-1 
-1 
-1 
-1 
-1 
-1 
-1 
-1 
-1 
-1 
-1 
-1 
-1 
-1 
-1 
-1 
-1 
-1 
-1 
-1 
-1 
-1 
-1 
-1 
-1 
-1 
-1 
-1 
-1 
-1 
-1 
-1 
-1 
-1 
-1 
-1 
-1 
-1 
-1 
-1 
-1 
-1 
-1 
-1 
-1 
-1 
-1 
-1 
-1 
-1 
-1 
-1 
-1 
-1 
-1 
-1 
-1 
-1 
-1 
-1 
-1 
-1 
-1 
-1 
-1 
-1 
-1 
-1 
-1 
-1 
-1 
-1 
-1 
-1 
-1 
-1 
-1 
-1 
-1 
-1 
-1 
-1 
-1 
-1 
-1 
-1 
-1 
-1 
-1 
-1 
-1 
-1 
-1 
-1 
-1 
-1 
-1 
-1 
-1 
-1 
-1 
-1 
-1 
-1 
-1 
-1 
-1 
-1 
-1 
-1 
-1 
-1 
-1 
-1 
-1 
-1 
-1 
-1 
-1 
-1 
-1 
-1 
-1 
-1 
-1 
-1 
-1 
-1 
-1 
-1 
-1 
-1 
-1 
-1 
-1 
-1 
-1 
-1 
-1 
-1 
-1 
-1 
-1 
-1 
-1 
-1 
-1 
-1 
-1 
-1 
-1 
-1 
-1 
-1 
-1 
-1 
-1 
-1 
-1 
-1 
-1 
-1 
-1 
-1 
-1 
-1 
-1 
-1 
-1 
-1 
-1 
-1 
-1 
-1 
-1 
-1 
-1 
-1 
-1 
-1 
-1 
-1 
-1 
-1 
-1 
-1 
-1 
-1 
-1 
-1 
-1 
-1 
-1 
-1 
-1 
-1 
-1 
-1 
-1 
-1 
-1 
-1 
-1 
-1 
-1 
-1 
-1 
-1 
-1 
-1 
-1 
-1 
-1 
-1 
-1 
-1 
-1 
-1 
-1 
-1 
-1 
-1 
-1 
-1 
-1 
-1 
-1 
-1 
-1 
-1 
-1 
-1 
-1 
-1 
-1 
-1 
-1 
-1 
-1 
-1 
-1 
-1 
-1 
-1 
-1 
-1 
-1 
-1 
-1 
-1 
-1 
-1 
-1 
-1 
-1 
-1 
-1 
-1 
-1 
-1 
-1 
-1 
-1 
-1 
-1 
-1 
-1 
-1 
-1 
-1 
-1 
-1 
-1 
-1 
-1 
-1 
-1 
-1 
-1 
-1 
-1 
-1 
-1 
-1 
-1 
-1 
-1 
-1 
-1 
-1 
-1 
-1 
-1 
-1 
-1 
-1 
-1 
-1 
-1 
-1 
-1 
-1 
-1 
-1 
-1 
-1 
-1 
-1 
-1 
-1 
-1 
-1 
-1 
-1 
-1 
-1 
-1 
-1 
-1 
-1 
-1 
-1 
-1 
-1 
-1 
-1 
-1 
-1 
-1 
-1 
-1 
-1 
-1 
-1 
-1 
-1 
-1 
-1 
-1 
-1 
-1 
-1 
-1 
-1 
-1 
-1 
-1 
-1 
-1 
-1 
-1 
-1 
-1 
-1 
-1 
-1 
-1 
-1 
-1 
-1 
-1 
-1 
-1 
-1 
-1 
-1 
-1 
-1 
-1 
-1 
-1 
-1 
-1 
-1 
-1 
-1 
-1 
-1 
-1 
-1 
-1 
-1 
-1 
-1 
-1 
-1 
-1 
-1 
-1 
-1 
-1 
-1 
-1 
-1 
-1 
-1 
-1 
-1 
-1 
-1 
-1 
-1 
-1 
-1 
-1 
-1 
-1 
-1 
-1 
-1 
-1 
-1 
-1 
-1 
-1 
-1 
-1 
-1 
-1 
-1 
-1 
-1 
-1 
-1 
-1 
-1 
-1 
-1 
-1 
-1 
-1 
-1 
-1 
-1 
-1 
-1 
-1 
-1 
-1 
-1 
-1 
-1 
-1 
-1 
-1 
-1 
-1 
-1 
-1 
-1 
-1 
-1 
-1 
-1 
-1 
-1 
-1 
-1 
-1 
-1 
-1 
-1 
-1 
-1 
-1 
-1 
-1 
-1 
-1 
-1 
-1 
-1 
-1 
-1 
-1 
-1 
-1 
-1 
-1 
-1 
-1 
-1 
-1 
-1 
-1 
-1 
-1 
-1 
-1 
-1 
-1 
-1 
-1 
-1 
-1 
-1 
-1 
-1 
-1 
-1 
-1 
-1 
-1 
-1 
-1 
-1 
-1 
-1 
-1 
-1 
-1 
-1 
-1 
-1 
-1 
-1 
-1 
-1 
-1 
-1 
-1 
-1 
-1 
-1 
-1 
-1 
-1 
-1 
-1 
-1 
-1 
-1 
-1 
-1 
-1 
-1 
-1 
-1 
-1 
-1 
-1 
-1 
-1 
-1 
-1 
-1 
-1 
-1 
-1 
-1 
-1 
-1 
-1 
-1 
-1 
-1 
-1 
-1 
-1 
-1 
-1 
-1 
-1 
-1 
-1 
-1 
-1 
-1 
-1 
-1 
-1 
-1 
-1 
-1 
-1 
-1 
-1 
-1 
-1 
-1 
-1 
-1 
-1 
-1 
-1 
-1 
-1 
-1 
-1 
-1 
-1 
-1 
-1 
-1 
-1 
-1 
-1 
-1 
-1 
-1 
-1 
-1 
-1 
-1 
-1 
-1 
-1 
-1 
-1 
-1 
-1 
-1 
-1 
-1 
-1 
-1 
-1 
-1 
-1 
-1 
-1 
-1 
-1 
-1 
-1 
-1 
-1 
-1 
-1 
-1 
-1 
-1 
-1 
-1 
-1 
-1 
-1 
-1 
-1 
-1 
-1 
-1 
-1 
-1 
-1 
-1 
-1 
-1 
-1 
-1 
-1 
-1 
-1 
-1 
-1 
-1 
-1 
-1 
-1 
-1 
-1 
-1 
-1 
-1 
-1 
-1 
-1 
-1 
-1 
-1 
-1 
-1 
-1 
-1 
-1 
-1 
-1 
-1 
-1 
-1 
-1 
-1 
-1 
-1 
-1 
-1 
-1 
-1 
-1 
-1 
-1 
-1 
-1 
-1 
-1 
-1 
-1 
-1 
-1 
-1 
-1 
-1 
-1 
-1 
-1 
-1 
-1 
-1 
-1 
-1 
-1 
-1 
-1 
-1 
-1 
-1 
-1 
-1 
-1 
-1 
-1 
-1 
-1 
-1 
-1 
-1 
-1 
-1 
-1 
-1 
-1 
-1 
-1 
-1 
-1 
-1 
-1 
-1 
-1 
-1 
-1 
-1 
-1 
-1 
-1 
-1 
-1 
-1 
-1 
-1 
-1 
-1 
-1 
-1 
-1 
-1 
-1 
-1 
-1 
-1 
-1 
-1 
-1 
-1 
-1 
-1 
-1 
-1 
-1 
-1 
-1 
-1 
-1 
-1 
-1 
-1 
-1 
-1 
-1 
-1 
-1 
-1 
-1 
-1 
-1 
-1 
-1 
-1 
-1 
-1 
-1 
-1 
-1 
-1 
-1 
-1 
-1 
-1 
-1 
-1 
-1 
-1 
-1 
-1 
-1 
-1 
-1 
-1 
-1 
-1 
-1 
-1 
-1 
-1 
-1 
-1 
-1 
-1 
-1 
-1 
-1 
-1 
-1 
-1 
-1 
-1 
-1 
-1 
-1 
-1 
-1 
-1 
-1 
-1 
-1 
-1 
-1 
-1 
-1 
-1 
-1 
-1 
-1 
-1 
-1 
-1 
-1 
-1 
-1 
-1 
-1 
-1 
-1 
-1 
-1 
-1 
-1 
-1 
-1 
-1 
-1 
-1 
-1 
-1 
-1 
-1 
-1 
-1 
-1 
-1 
-1 
-1 
-1 
-1 
-1 
-1 
-1 
-1 
-1 
-1 
-1 
-1 
-1 
-1 
-1 
-1 
-1 
-1 
-1 
-1 
-1 
-1 
-1 
-1 
-1 
-1 
-1 
-1 
-1 
-1 
-1 
-1 
-1 
-1 
-1 
-1 
-1 
VECTORS G_average double
-1.115389177 -2.672264409 0 
-1.003709541 -2.689548832 0 
-3.853868291 -0.696292657 0 
-3.715685203 -1.067009514 0 
-3.955318601 -0.8975561015 0 
-3.784518231 -0.8205179029 0 
-3.830402946 -0.9852885209 0 
-4.072760489 -0.9960074971 0 
-1.028940728 -4.375671205 0 
-1.08381665 -4.355838531 0 
-0.7250689185 -4.04291482 0 
-0.6628723139 -4.232669638 0 
-0.584484835 -4.085517491 0 
-0.661889766 -4.118938195 0 
-0.9987345695 -4.294727736 0 
-1.129963539 -4.196934811 0 
-2.769395035 -0.4858835075 0 
-3.993315938 -1.13340011 0 
-4.097289624 -1.187778607 0 
-4.05505333 -0.8945177752 0 
-4.146637172 -1.015959672 0 
-4.216836696 -1.055842312 0 
-1.047769881 -2.654791097 0 
-1.006944423 -2.616811973 0 
-0.8081889775 -3.840582132 0 
-0.8664733191 -4.079073704 0 
-3.888651152 0.6861034829 0 
-3.84102953 -0.6365117409 0 
-4.198379847 -1.010308974 0 
-4.194064926 -0.9869439029 0 
-4.057968941 0.8747446317 0 
-3.832575508 -0.8905932954 0 
-4.22040269 -1.005285895 0 
-4.235589888 -0.9393966609 0 
-2.820633731 -0.8538009343 0 
-2.412592338 -1.00949762 0 
-2.297540434 -0.3656060887 0 
-3.531323708 -0.6827629839 0 
-2.598022374 -0.6645106046 0 
-3.914877239 -1.002672007 0 
-1.066197481 -4.357634416 0 
-1.053407383 -4.303637936 0 
-1.023442115 -4.484279926 0 
-1.022700331 -3.95308798 0 
-1.013591957 -2.573751939 0 
-0.5662711528 -4.085021228 0 
-0.8229789841 -3.680438687 0 
-0.524671406 -4.138956047 0 
-0.8022102541 -2.530151029 0 
-0.9111069213 -2.74279657 0 
-0.5507536827 -4.038455888 0 
-0.9061124106 -2.415722429 0 
-1.324043366 -4.096103598 0 
-1.140100661 -4.081809451 0 
-1.425351516 -2.943532938 0 
-0.9995222902 -3.376565381 0 
-0.9499047908 -3.046227687 0 
-1.436207213 -2.547967359 0 
-1.366078699 -4.236741321 0 
-0.7726988492 -4.319225991 0 
-1.086786958 -4.337982145 0 
-1.060269765 -4.386947179 0 
-2.435117552 -1.035507905 0 
-2.542672553 -1.138383689 0 
-2.501592589 -1.013185841 0 
-2.533233668 -1.004189729 0 
-2.758104157 -1.023920172 0 
-2.583417873 -0.9973412238 0 
-1.022645354 -2.610354208 0 
-0.9723003307 -2.621256038 0 
-4.201316482 -0.9556963516 0 
-4.207980106 -1.002374592 0 
-1.053985147 -4.367796223 0 
-0.9753382982 -4.350164721 0 
-0.9495102003 -2.751723031 0 
-0.918637293 -2.72378921 0 
-0.8145025137 -4.509298113 0 
-0.5560812054 -2.807623234 0 
-2.566912225 -0.9391551654 0 
-2.623474559 -0.8225896525 0 
-3.793777295 -1.308204406 0 
-2.687383649 -0.5931525841 0 
-3.988211826 -1.054256781 0 
-2.483497639 -0.9588390711 0 
-5.058447181 0.2082385396 0 
-5.148743579 0.1534849058 0 
-4.129588733 0.406184045 0 
-3.983763648 0.6256145197 0 
-3.486568365 0.2804868885 0 
-3.949370614 0.01512093068 0 
-4.17232747 -1.064586267 0 
-4.221109607 -0.5623631508 0 
-4.029382371 -0.8145998602 0 
-3.9015264 -0.5746305621 0 
-4.067004334 -0.1161595755 0 
-4.002571685 -0.3219402661 0 
-2.704601926 -0.4977000636 0 
-2.780887928 -0.7037399689 0 
-2.627823283 0.2554958355 0 
-3.607683103 -0.7365004498 0 
-2.647253882 0.3116559458 0 
-2.865024367 0.1634151029 0 
-2.982765143 0.1385195872 0 
-3.18894807 0.6388431535 0 
-3.958077929 0.9389329967 0 
-3.596948511 0.5103905731 0 
-3.261273691 0.6363174198 0 
-3.741050121 0.658593465 0 
-1.069377939 -4.271844629 0 
-1.195225525 -4.446353927 0 
-0.5403974492 -4.249000429 0 
-1.067334051 -4.359145776 0 
-0.4341997987 -4.366508268 0 
-0.9765468548 -2.334298077 0 
-0.4208294704 -3.61025843 0 
-0.4690621257 -3.390274867 0 
-0.5697145128 -3.77891015 0 
-0.5945557799 -3.651094168 0 
-1.124558268 -5.017010394 0 
-0.6106622629 -4.875732967 0 
-0.812935803 -4.036265731 0 
-0.7818875822 -4.382629604 0 
-0.3139195922 -3.701628386 0 
-0.5784922844 -3.627431012 0 
-0.783930928 -3.021272067 0 
-0.9047658099 -2.917910051 0 
-0.4625005701 -4.032515375 0 
-0.8044219813 -2.39012192 0 
-0.8669591181 -2.369260346 0 
-0.8523069977 -2.408405827 0 
-0.9028026892 -2.595633948 0 
-0.9127632251 -2.573091713 0 
-1.019637674 -2.551776175 0 
-1.06829615 -2.786101317 0 
-1.14184996 -4.402026087 0 
-1.464077498 -4.451722441 0 
-1.085494005 -4.382310062 0 
-1.023175941 -4.382991381 0 
-1.035362374 -4.362859967 0 
-1.126114288 -4.469921611 0 
-1.041861726 -4.29891673 0 
-1.191126046 -4.36340269 0 
-2.908666187 -0.855443792 0 
-4.168046817 -1.131904319 0 
-2.645847133 -0.9704943211 0 
-2.907178564 -1.572619921 0 
-2.625046328 -1.066227768 0 
-2.488815239 -0.8726198768 0 
-2.487699149 -1.004947497 0 
-2.418522112 -1.122645576 0 
-3.53036835 -0.7235009146 0 
-2.503745395 -0.9338025977 0 
-3.976010961 -1.213474568 0 
-4.14491863 -1.277364697 0 
-4.20820103 -1.05553647 0 
-4.312990005 -1.053145841 0 
-4.270467254 -1.008115274 0 
-4.230881387 -1.02716479 0 
-4.240795668 -1.120948207 0 
-4.282289784 -1.073424319 0 
-2.435542956 -0.9757584409 0 
-2.501868945 -0.9977356977 0 
-2.247331485 -2.398496436 0 
-2.282523073 -2.129135199 0 
-2.565236761 -0.9437549727 0 
-2.508852436 -1.024072946 0 
-1.030413108 -2.622030389 0 
-0.9654974063 -2.66715742 0 
-1.002487065 -2.618883295 0 
-1.059175139 -2.580321649 0 
-2.149613145 -2.276009604 0 
-2.189838584 -2.160830485 0 
-0.9265832121 -2.690044744 0 
-0.9610331197 -2.649945025 0 
-4.298624879 -0.9566633502 0 
-4.944446959 -0.7254440509 0 
-4.230292587 -0.9813725296 0 
-4.290891326 -0.9301209233 0 
-4.259797078 -1.237820321 0 
-4.416382329 -1.030446431 0 
-3.634953993 -1.842352234 0 
-4.066980083 -1.465534268 0 
-1.063802776 -4.465308288 0 
-1.163802911 -4.508465667 0 
-1.040576133 -4.130067463 0 
-0.9504789302 -4.076674471 0 
-0.858831495 -4.115481136 0 
-0.8982360829 -4.124280523 0 
-0.1290197206 -2.122427677 0 
-0.6126095659 -3.557788634 0 
-0.5890051879 -2.69117968 0 
-0.9207918688 -2.351718083 0 
-1.119185559 -2.906503949 0 
-0.9089105091 -2.755573852 0 
-0.9077425679 -2.721589218 0 
-0.9286759398 -2.739781238 0 
-1.350631605 -3.882654367 0 
-0.6596829573 -2.846611116 0 
-2.529787516 -3.72558214 0 
-2.308144817 -3.985962698 0 
-2.490634039 -4.15433677 0 
-2.417701122 -4.01855509 0 
-3.953690938 -2.477618514 0 
-3.885785425 -2.303600369 0 
-3.904720575 -2.601770496 0 
-2.204910792 -2.103122575 0 
-2.572303835 -0.9192401406 0 
-2.509601201 -0.9351021232 0 
-2.542306954 -0.8304256522 0 
-2.705831072 -1.212229239 0 
-4.084513971 -1.340076538 0 
-2.542813082 -0.3848959164 0 
-4.728878337 0.2949729505 0 
-4.946522097 0.5867491187 0 
-5.668268667 -0.1796162077 0 
-5.305444824 0.559665247 0 
-4.081100439 -0.5018073906 0 
-4.061151028 -0.5720275323 0 
-2.275392554 -2.442209317 0 
-0.873937953 -2.92448264 0 
-0.3709714083 -3.708283344 0 
-0.3433746015 -3.955567063 0 
-2.557670376 -4.212312191 0 
-2.590233641 -3.994988584 0 
-3.62405295 0.2040368689 0 
-3.937014818 -0.2875765549 0 
-2.855879369 0.2060427963 0 
-3.596365046 -0.4629549035 0 
-2.725699866 0.3390306399 0 
-2.629873296 0.4061554817 0 
-4.008384934 0.3826026281 0 
-3.747318938 0.9888489677 0 
-3.94289677 0.9455087155 0 
-2.702309763 -0.3350155306 0 
-4.24666197 -1.046773375 0 
-4.29336105 -1.003908688 0 
-4.206927405 -1.039781217 0 
-4.171278244 -0.9816832683 0 
-4.438590789 -1.04971747 0 
-3.826880449 -0.3780637801 0 
-4.036731521 -1.071661851 0 
-4.117664457 -1.051719676 0 
-4.004958507 -0.9808076886 0 
-4.074352929 -0.7417342389 0 
-3.928720592 -0.856374 0 
-4.085994572 0.2817457565 0 
-4.238279985 0.8428232627 0 
-4.345128029 0.6178238907 0 
-4.018098892 -0.3267819572 0 
-3.323789751 0.6253670985 0 
-2.649707172 0.07804705763 0 
-2.938845141 -0.3428453038 0 
-2.954524672 0.2105028026 0 
-2.828127931 0.6225230773 0 
-4.130341922 0.8379845323 0 
-4.181094971 0.9570715223 0 
-1.022691401 -4.330854737 0 
-1.100985968 -4.328291685 0 
-0.8729253097 -5.32716426 0 
-1.145232843 -4.335889048 0 
-0.1862331308 -3.001931745 0 
-0.9893518839 -3.06829358 0 
-0.5220439486 -4.669589553 0 
-0.8958277219 -2.527268562 0 
-0.5353757546 -3.963832028 0 
-0.9423845131 -3.099023698 0 
-0.7438756219 -3.61214133 0 
-0.7354860108 -3.49128285 0 
-0.7366712168 -3.33122989 0 
-0.498324843 -4.218365006 0 
-0.9334105776 -4.510971005 0 
-0.9873611217 -5.253597393 0 
-0.3655167188 -3.739862557 0 
-0.7883595444 -3.71277734 0 
-0.8232054019 -4.141962962 0 
-0.5999755394 -3.7999536 0 
-1.003085731 -4.081599098 0 
-1.053645623 -4.2487201 0 
-0.9945290458 -4.016829127 0 
-0.9443706763 -4.03715802 0 
-0.4346865889 -3.129863819 0 
-0.9047505352 -2.539303239 0 
-0.6448363145 -3.809685316 0 
-0.6213998986 -3.647409707 0 
-0.4763027971 -3.342408356 0 
-0.249279496 -4.008154601 0 
0.7209736693 -3.604742684 0 
-0.5099110801 -3.581930983 0 
-0.5029019489 -2.811893862 0 
-0.1902849262 -2.82242255 0 
-0.6528642653 -2.416687242 0 
-0.5707191346 -2.994517351 0 
-0.4474782684 -4.086677334 0 
-0.871040596 -2.236848734 0 
-1.094678569 -2.150926828 0 
-1.902982121 -4.402702133 0 
-1.060153969 -2.493940177 0 
-0.4309971905 -2.78836746 0 
-0.9738179626 -2.521191502 0 
-1.045449289 -2.81683753 0 
-1.153674886 -4.276480834 0 
-1.054661974 -4.436524899 0 
-1.029177598 -4.393162619 0 
-1.101461779 -4.432794715 0 
-0.9979666618 -4.453831323 0 
-1.058496859 -4.395506256 0 
-2.327254316 -3.934322831 0 
-2.264663667 -4.145707838 0 
-2.345311428 -4.207905893 0 
-2.52811189 -4.016097131 0 
-4.010995315 -0.2469201509 0 
-3.290256764 -0.8440842507 0 
-2.365263798 -1.156329195 0 
-3.372791136 -1.324219742 0 
-2.754883994 -1.017376241 0 
-2.494283921 -0.8990333248 0 
-4.054515706 -2.502729135 0 
-4.197012179 -2.222619346 0 
-2.410985928 -2.140935718 0 
-4.219482037 -0.9549784345 0 
-4.12546515 -2.602015211 0 
-4.043269261 -2.570958883 0 
-3.832350366 -2.22140255 0 
-3.75414545 -2.435619687 0 
-3.996913311 -2.420384331 0 
-4.024353889 -2.877201089 0 
-4.254163122 -1.023468735 0 
-4.12431589 -1.016326386 0 
-4.257003846 -1.023711483 0 
-4.277191602 -1.033329382 0 
-3.893878612 -0.8514190162 0 
-4.193756987 -1.17024055 0 
-2.6010663 -0.9680906051 0 
-2.728617181 -0.746692722 0 
-2.338156346 -2.469642871 0 
-2.354018949 -2.638431748 0 
-2.48213913 -1.02422078 0 
-4.004697205 -1.338561654 0 
-2.431401858 -1.032106902 0 
-2.587981057 -1.071554151 0 
-2.556164146 -0.9640809135 0 
-2.558601844 -0.9572096751 0 
-0.9060300136 -2.69613307 0 
-1.138936866 -2.695846829 0 
-0.8544602315 -2.779150336 0 
-0.8727989912 -2.689650744 0 
-2.250370321 -2.612715066 0 
-2.433633303 -2.658569553 0 
-0.9989081104 -2.501711467 0 
-0.8429378109 -2.515215758 0 
-4.070789955 -0.8637757002 0 
-4.170968016 -1.072526852 0 
-4.270500159 0.05804535227 0 
-5.5837199 -1.088335054 0 
-4.602610725 -1.267392834 0 
-4.231803981 -0.8900228065 0 
-3.535167838 -2.406417123 0 
-4.324814497 -1.904475999 0 
-4.036899253 -2.338117111 0 
-3.828341935 -2.361369306 0 
-2.145197364 -3.848439583 0 
-1.198466044 -4.143591691 0 
-0.9811388821 -4.338262915 0 
-0.9944548797 -4.386251943 0 
-1.120844643 -4.23413225 0 
-1.132543542 -4.149164292 0 
-0.7788779374 -4.069871439 0 
-0.3772261707 -3.784035873 0 
-0.8226815592 -5.427299783 0 
-1.023792952 -5.436372476 0 
-0.8464489297 -3.573261993 0 
-0.4429135185 -2.804638734 0 
-0.8105494858 -2.896933991 0 
-0.9194415025 -2.658653216 0 
-1.627656778 -3.385728483 0 
-0.6625440217 -2.736876259 0 
-0.8209290699 -2.695219233 0 
-0.8691568569 -2.525213733 0 
-1.756166027 -2.178920207 0 
-1.715862228 -2.670904131 0 
-2.467802683 -2.441932121 0 
-1.100864834 -4.282616451 0 
-2.553626226 -2.382902452 0 
-2.755072199 -2.417582233 0 
-2.467909232 -4.371747897 0 
-2.579100019 -4.246076358 0 
-4.169081493 -2.478673475 0 
-3.994124386 -2.574100366 0 
-2.578360444 -2.406249838 0 
-3.912383408 -2.595207768 0 
-2.941058384 -1.20357216 0 
-2.163014005 -2.044939013 0 
-1.661807789 -2.735536543 0 
-1.973224659 -2.520170611 0 
-2.458078201 -0.9693491636 0 
-2.615235642 -0.8401457695 0 
-2.535133547 -0.8993142178 0 
-4.281794575 -1.471353613 0 
-4.526885459 -1.176627512 0 
-2.894519436 -0.3648432884 0 
-4.19391687 0.776676717 0 
-4.096224908 0.8491156196 0 
-5.407513829 -0.2349109556 0 
-4.244534896 -0.5397805858 0 
-5.373573824 0.5748238031 0 
-4.509505079 -0.6962351467 0 
-5.766219699 0.4145710311 0 
-4.78646654 0.4062557714 0 
-5.470189628 0.2902440928 0 
-4.066766471 -0.3758869902 0 
-3.846438179 -0.4849220927 0 
-4.286838521 -0.3976587725 0 
-2.29279448 -2.383258779 0 
-0.8341768927 -2.329647767 0 
-2.389422047 -4.307849488 0 
-2.733459478 -3.923919017 0 
-2.496777646 -4.172411213 0 
-2.140227419 -4.183533972 0 
-1.390215426 -5.107450728 0 
-0.7798102094 -4.068469757 0 
-0.06817915039 -3.677204168 0 
-0.1007745738 -3.615747167 0 
-0.5357885894 -3.922412616 0 
-1.241484046 -5.105878878 0 
-2.5728419 -4.197532076 0 
-2.63263932 -4.206365587 0 
-3.997132572 -2.229793594 0 
-4.180781283 -2.450382916 0 
-4.035741226 0.7868484379 0 
-4.381738087 0.7595428066 0 
-5.090574074 0.1318181131 0 
-5.002097551 0.2650234465 0 
-3.0451489 0.5090312685 0 
-3.634093713 -0.4834061589 0 
-3.754046152 0.6868298506 0 
-3.151574471 0.319699307 0 
-3.664606405 0.8245476815 0 
-2.643262767 0.2387421238 0 
-3.98401977 1.283122752 0 
-4.162609599 -0.8253627443 0 
-4.219163716 -1.114617574 0 
-4.240148441 -1.083427674 0 
-4.232408799 -1.100907034 0 
-4.752227456 -0.83801684 0 
-4.263712055 -1.28904898 0 
-4.085591979 -0.7820513741 0 
-4.296274831 -1.283162205 0 
-3.934256096 -0.9466858803 0 
-3.775739514 -1.107252935 0 
-4.1572775 0.1579051771 0 