# vtk DataFile Version 3.0
MOAB 5.5.0
ASCII
DATASET UNSTRUCTURED_GRID
POINTS 1568 double
82.25230654 176.2924732 0
84.65630287 178.7297902 0
187.4611102 54.91642295 0
185.4119627 59.76371164 0
178.8349382 56.44359545 0
183.7320119 53.94165662 0
182.6677669 58.63834954 0
175.2243617 59.09558184 0
55.85204371 172.3728071 0
61.22671107 168.9007018 0
55.61257357 183.0992033 0
53.13287398 179.8100599 0
51.90568942 182.9749789 0
53.61710931 181.9288116 0
58.1580643 174.9181587 0
63.50996504 176.5377358 0
186.8738722 63.55820286 0
177.9800657 64.1170925 0
174.9270477 65.90800788 0
176.3774237 56.25216649 0
172.0011545 59.31557307 0
167.2606051 62.60162014 0
84.18747373 176.664281 0
87.14851751 176.3468464 0
53.03804369 186.8649211 0
57.87550324 181.0572472 0
185.17404 49.74072094 0
185.645678 53.635536 0
166.2767091 52.17080349 0
170.2954505 56.13710952 0
182.9394019 50.05363565 0
182.5762873 55.68929885 0
164.5480875 57.51717807 0
172.1823389 53.71114979 0
189.4202127 53.3591524 0
192.0052431 56.02940945 0
192.5129908 60.19275654 0
190.5843923 57.96854822 0
188.612478 51.23754319 0
180.2249631 59.36190901 0
58.48213002 167.5207848 0
51.65396435 164.2189456 0
53.24742493 173.3684471 0
60.95461195 182.4149889 0
48.79877993 187.3979296 0
55.46119177 186.0585749 0
60.93243219 187.0101399 0
50.59694743 181.5429398 0
49.14573003 190.6562032 0
46.94224274 188.2915455 0
51.4780056 184.9517168 0
54.77358768 191.4886368 0
70.13501853 178.6950902 0
63.8113121 180.1022137 0
77.86048027 175.8627223 0
73.25668977 178.5448888 0
76.22931547 180.6023225 0
79.21363635 174.0896623 0
68.70219622 175.2125996 0
54.15959806 177.8723269 0
53.05771527 167.4596969 0
62.17075485 164.1263512 0
173.3831535 83.49929302 0
176.1880238 81.37998205 0
174.0310509 87.88230391 0
172.5453572 88.63673621 0
179.7874605 78.84829485 0
179.7499094 83.59082896 0
88.2679403 175.1749842 0
87.58873056 177.9557432 0
160.8098592 52.44698208 0
167.0816052 55.34486408 0
59.22978219 164.1991834 0
52.41556514 156.9741665 0
83.53776653 182.1112844 0
87.04631325 184.0689478 0
52.80628053 175.8370031 0
68.61953053 185.9895853 0
184.067071 86.02219353 0
186.1537399 79.33593178 0
180.5638878 67.20940753 0
187.0112044 72.13556812 0
178.0633722 61.16507219 0
194.1330765 56.4707981 0
174.2886557 23.97693136 0
176.3769481 25.94759516 0
190.9338802 33.31336599 0
193.3312804 34.81719052 0
188.7856574 40.38802579 0
188.388262 34.82101428 0
170.5367602 62.16342931 0
176.138161 51.7841303 0
159.6896741 40.4608671 0
162.8918532 36.22815413 0
164.6979835 34.07917532 0
167.2686508 36.97171995 0
184.5519077 67.32831896 0
192.8337607 52.69044617 0
188.884976 47.84717936 0
188.0016236 57.41889497 0
189.7027211 49.60055004 0
187.3797718 45.35859961 0
188.2016852 42.01148144 0
192.2293098 41.61018802 0
196.6294842 37.092814 0
191.2239818 38.15880479 0
190.959725 40.12492445 0
192.9555559 37.35832811 0
60.94436489 174.347806 0
51.26635821 171.8388975 0
51.25910079 179.7193545 0
56.00268601 168.9366241 0
50.23363358 178.2454144 0
52.19635087 189.0154401 0
36.64245963 190.1731305 0
38.51489131 187.5236207 0
33.39586816 187.7950419 0
35.35897617 187.3027544 0
26.58005934 177.0516699 0
25.70708315 172.6538223 0
36.18687323 163.7715323 0
31.01647883 160.9745357 0
35.42989299 193.3301835 0
40.06960389 188.5307556 0
43.44501753 188.6293408 0
45.26113965 187.4381926 0
48.1330671 183.791811 0
51.61957229 192.5999859 0
57.40763961 193.1640981 0
53.07449603 190.9660443 0
88.44309556 170.5070288 0
90.40013978 169.6361494 0
84.53677712 172.1944441 0
81.1707041 178.8085265 0
66.47070771 169.5336721 0
70.37608529 173.2780799 0
63.05848585 166.7862667 0
59.20274391 158.1913897 0
57.54734108 161.6489706 0
68.78907055 169.4248177 0
68.06508415 156.682501 0
68.60822149 152.5574623 0
180.9821942 75.65257785 0
172.1389247 65.12586584 0
181.2559485 81.4204208 0
175.4005461 77.21702884 0
171.9445322 90.6481158 0
168.8458369 88.64108696 0
173.7082597 86.22613791 0
173.9052359 81.69886412 0
166.9817228 88.82682853 0
169.7132217 87.06769894 0
150.129912 72.41162643 0
152.2113289 70.65105861 0
156.5943138 67.70989464 0
154.6475313 63.79696541 0
158.9446761 61.32649186 0
164.7817012 60.74220648 0
170.2499701 67.42032039 0
164.4096836 66.13811289 0
171.8722845 84.24834274 0
177.0129877 86.87322161 0
170.3482395 95.86532494 0
166.4960184 90.95548417 0
182.2401295 86.5694532 0
176.2570785 85.06283362 0
85.45708251 175.5645658 0
86.36612469 179.2389719 0
87.5912603 173.4804767 0
89.81488528 175.5286644 0
92.44732639 166.5352707 0
93.36643692 171.2978038 0
87.04119905 180.9846693 0
88.60817667 172.273503 0
157.1690123 33.97098941 0
160.1410198 29.20735286 0
161.3387541 56.08713926 0
154.9803873 55.67347056 0
152.2181447 68.09570456 0
151.4232294 62.68326919 0
146.6198301 72.03753333 0
154.2263665 73.80858722 0
63.12775746 151.3408002 0
66.50387615 149.8253861 0
44.6796256 164.8689036 0
41.3437499 164.0899025 0
37.97355507 160.3629868 0
40.93522012 160.8637558 0
40.57371977 209.3341576 0
38.62318551 206.0290108 0
64.80927747 194.4253796 0
55.14711922 193.4982613 0
78.84211784 178.5298266 0
83.28293343 184.4500738 0
85.83814832 185.729245 0
88.8548416 184.2673203 0
74.00956854 175.4722227 0
73.03020268 187.6698487 0
92.18624075 164.4160906 0
90.45164283 162.1501053 0
85.15188474 149.1226491 0
79.86056502 148.3503018 0
160.022453 91.27400961 0
161.4166143 89.79311757 0
160.8733939 93.87611823 0
168.4427298 92.22882827 0
184.9452448 84.18485152 0
188.5552456 86.60590607 0
188.6391888 81.22807489 0
177.0846025 79.09817105 0
175.435164 69.06357774 0
194.4741044 67.33626457 0
167.1690046 28.58547244 0
171.8307423 25.58736903 0
177.9869215 30.51097912 0
172.6821019 28.07133556 0
183.1298886 33.26743402 0
181.6614129 32.32236721 0
94.60401463 167.4190217 0
88.93205123 166.6400487 0
34.71621088 191.592282 0
29.9443033 190.6641922 0
91.89711216 157.2225637 0
93.50489367 162.3029802 0
189.0540881 37.1253155 0
185.1008137 32.60195984 0
186.3907098 42.44469489 0
185.8612612 38.4788956 0
189.9836515 46.40997125 0
184.8901732 41.39582304 0
186.4167755 51.28418197 0
182.7247134 46.88229674 0
181.9420037 48.50162337 0
191.3921316 63.43759452 0
169.8172725 50.6468856 0
171.4307628 51.52479951 0
167.9477805 50.55714448 0
163.2142964 50.70296029 0
172.8955309 50.04474384 0
178.4537431 51.22810001 0
165.9623401 45.54900264 0
165.8109454 47.51707058 0
164.1761295 44.27772763 0
159.4588833 37.35070863 0
163.0966714 40.60777125 0
169.5152887 30.55498995 0
203.4086278 36.92545235 0
207.4500609 34.338668 0
198.3653415 56.7872357 0
202.0918384 59.03195994 0
187.2492956 47.18435015 0
194.6570021 53.29835462 0
186.133267 44.2839304 0
192.4960868 44.89235969 0
197.8420155 33.25719174 0
200.0236443 36.90856199 0
53.53651461 161.5148104 0
62.13315084 171.3557788 0
49.36966225 174.9005286 0
50.92600624 169.3663303 0
41.4913403 191.3618919 0
41.74503219 187.59101 0
50.75408924 176.300796 0
50.09090131 189.0068106 0
49.34419142 185.4933547 0
45.00286299 185.3210197 0
35.58500721 185.3361209 0
38.65706768 185.7534901 0
37.15210321 184.6431771 0
28.12360909 187.617533 0
24.49376875 175.5366544 0
30.18493929 176.5602841 0
24.2440228 169.3408624 0
30.96799634 170.3328041 0
34.41702985 158.0304135 0
30.15172726 167.9017584 0
42.97130482 165.0289286 0
48.66397649 164.2228494 0
42.24912961 166.7554365 0
40.20809518 165.2278781 0
57.79621489 201.459494 0
58.18629814 195.2752559 0
35.79275423 204.3809049 0
38.69932912 204.5041138 0
34.97701827 200.1722879 0
37.86635625 196.2406471 0
38.91102491 197.8329435 0
36.7838958 188.3799413 0
44.46793399 191.7214319 0
43.57005305 193.3530406 0
48.6494035 193.7825813 0
43.28633474 190.4351304 0
47.90695091 180.2848633 0
53.97736957 194.7980552 0
57.03410807 191.1544736 0
72.56178637 173.6879044 0
82.33583846 172.2961837 0
64.61821986 189.1389297 0
85.170784 170.1240929 0
90.41778816 172.6675715 0
48.68642194 168.6196481 0
65.95106116 163.3189783 0
64.1447605 160.098851 0
66.64166363 165.2559072 0
67.25559388 161.8104386 0
64.05367337 155.0006737 0
74.09960539 150.48128 0
79.66301234 141.1790234 0
85.66471611 141.308646 0
81.65542891 152.0151033 0
182.2684714 51.9032173 0
178.6866616 73.34194473 0
172.5172691 80.07485063 0
175.8078715 74.65651952 0
169.9537492 90.76696215 0
168.9496098 85.27751399 0
158.248693 90.18631661 0
160.5263051 88.17943663 0
165.6377284 95.96540622 0
163.9206793 87.87980591 0
156.3777472 86.56112855 0
152.4152098 86.73525907 0
145.4759429 75.46627173 0
149.8346832 76.28901735 0
147.0444245 83.88242988 0
155.1987788 83.53854531 0
158.314349 65.94093362 0
157.1900693 69.7472029 0
162.0540206 62.41316333 0
162.3649815 65.10602522 0
180.1754339 54.88605714 0
166.5823205 69.04905931 0
191.3815769 53.92248566 0
184.7990285 75.84745351 0
170.3934605 98.10141285 0
170.898641 102.0187112 0
174.5381772 84.94273057 0
178.5289174 70.29007918 0
176.2235113 90.1925775 0
173.2263209 92.08999259 0
180.4773797 85.78792902 0
185.1860996 87.86268189 0
87.36040757 187.7227584 0
91.4746424 185.602787 0
80.7954027 186.3368695 0
88.89281068 181.3115483 0
96.56164953 165.7285065 0
99.44587562 166.8394308 0
90.37295954 177.1592818 0
90.64510791 167.7818848 0
159.1032621 43.74122484 0
167.3440093 48.49662703 0
164.2370211 30.43809326 0
149.219008 27.40594087 0
149.4941859 65.6769445 0
156.5977704 51.67564443 0
150.8784147 74.76274621 0
145.9772882 67.85820546 0
142.3664619 83.25496176 0
147.9422934 77.36663597 0
73.58474439 146.9284094 0
71.05410985 155.0906975 0
67.77767012 158.531643 0
56.22494438 154.9307443 0
47.82814311 166.7169184 0
45.75542412 166.6556173 0
21.20522087 176.4594094 0
19.92142082 169.2361433 0
13.77093143 157.5967053 0
22.31963377 153.6255132 0
56.20768375 199.9186913 0
61.59541568 204.6742696 0
76.7805237 184.6315629 0
89.53490422 187.4183521 0
76.00055667 174.8625521 0
74.05001026 192.8460541 0
82.27146021 190.695555 0
91.077648 188.1307182 0
94.98589289 192.5972517 0
92.37522259 189.2703029 0
97.21276525 170.6839403 0
89.02306163 164.7843571 0
100.4874364 173.1782565 0
104.11207 171.5864036 0
[...]
POINT_DATA 1568
SCALARS GLOBAL_ID int 1
LOOKUP_TABLE default
-1 
-1 
-1 
-1 
-1 
-1 
-1 
-1 
-1 
-1 
-1 
-1 
-1 
-1 
-1 
-1 
-1 
-1 
-1 
-1 
-1 
-1 
-1 
-1 
-1 
-1 
-1 
-1 
-1 
-1 
-1 
-1 
-1 
-1 
-1 
-1 
-1 
-1 
-1 
-1 
-1 
-1 
-1 
-1 
-1 
-1 
-1 
-1 
-1 
-1 
-1 
-1 
-1 
-1 
-1 
-1 
-1 
-1 
-1 
-1 
-1 
-1 
-1 
-1 
-1 
-1 
-1 
-1 
-1 
-1 
-1 
-1 
-1 
-1 
-1 
-1 
-1 
-1 
-1 
-1 
-1 
-1 
-1 
-1 
-1 
-1 
-1 
-1 
-1 
-1 
-1 
-1 
-1 
-1 
-1 
-1 
-1 
-1 
-1 
-1 
-1 
-1 
-1 
-1 
-1 
-1 
-1 
-1 
-1 
-1 
-1 
-1 
-1 
-1 
-1 
-1 
-1 
-1 
-1 
-1 
-1 
-1 
-1 
-1 
-1 
-1 
-1 
-1 
-1 
-1 
-1 
-1 
-1 
-1 
-1 
-1 
-1 
-1 
-1 
-1 
-1 
-1 
-1 
-1 
-1 
-1 
-1 
-1 
-1 
-1 
-1 
-1 
-1 
-1 
-1 
-1 
-1 
-1 
-1 
-1 
-1 
-1 
-1 
-1 
-1 
-1 
-1 
-1 
-1 
-1 
-1 
-1 
-1 
-1 
-1 
-1 
-1 
-1 
-1 
-1 
-1 
-1 
-1 
-1 
-1 
-1 
-1 
-1 
-1 
-1 
-1 
-1 
-1 
-1 
-1 
-1 
-1 
-1 
-1 
-1 
-1 
-1 
-1 
-1 
-1 
-1 
-1 
-1 
-1 
-1 
-1 
-1 
-1 
-1 
-1 
-1 
-1 
-1 
-1 
-1 
-1 
-1 
-1 
-1 
-1 
-1 
-1 
-1 
-1 
-1 
-1 
-1 
-1 
-1 
-1 
-1 
-1 
-1 
-1 
-1 
-1 
-1 
-1 
-1 
-1 
-1 
-1 
-1 
-1 
-1 
-1 
-1 
-1 
-1 
-1 
-1 
-1 
-1 
-1 
-1 
-1 
-1 
-1 
-1 
-1 
-1 
-1 
-1 
-1 
-1 
-1 
-1 
-1 
-1 
-1 
-1 
-1 
-1 
-1 
-1 
-1 
-1 
-1 
-1 
-1 
-1 
-1 
-1 
-1 
-1 
-1 
-1 
-1 
-1 
-1 
-1 
-1 
-1 
-1 
-1 
-1 
-1 
-1 
-1 
-1 
-1 
-1 
-1 
-1 
-1 
-1 
-1 
-1 
-1 
-1 
-1 
-1 
-1 
-1 
-1 
-1 
-1 
-1 
-1 
-1 
-1 
-1 
-1 
-1 
-1 
-1 
-1 
-1 
-1 
-1 
-1 
-1 
-1 
-1 
-1 
-1 
-1 
-1 
-1 
-1 
-1 
-1 
-1 
-1 
-1 
-1 
-1 
-1 
-1 
-1 
-1 
-1 
-1 
-1 
-1 
-1 
-1 
-1 
-1 
-1 
-1 
-1 
-1 
-1 
-1 
-1 
-1 
-1 
-1 
-1 
-1 
-1 
-1 
-1 
-1 
-1 
-1 
-1 
-1 
-1 
-1 
-1 
-1 
-1 
-1 
-1 
-1 
-1 
-1 
-1 
-1 
-1 
-1 
-1 
-1 
-1 
-1 
-1 
-1 
-1 
-1 
-1 
-1 
-1 
-1 
-1 
-1 
-1 
-1 
-1 
-1 
-1 
-1 
-1 
-1 
-1 
-1 
-1 
-1 
-1 
-1 
-1 
-1 
-1 
-1 
-1 
-1 
-1 
-1 
-1 
-1 
-1 
-1 
-1 
-1 
-1 
-1 
-1 
-1 
-1 
-1 
-1 
-1 
-1 
-1 
-1 
-1 
-1 
-1 
-1 
-1 
-1 
-1 
-1 
-1 
-1 
-1 
-1 
-1 
-1 
-1 
-1 
-1 
-1 
-1 
-1 
-1 
-1 
-1 
-1 
-1 
-1 
-1 
-1 
-1 
-1 
-1 
-1 
-1 
-1 
-1 
-1 
-1 
-1 
-1 
-1 
-1 
-1 
-1 
-1 
-1 
-1 
-1 
-1 
-1 
-1 
-1 
-1 
-1 
-1 
-1 
-1 
-1 
-1 
-1 
-1 
-1 
-1 
-1 
-1 
-1 
-1 
-1 
-1 
-1 
-1 
-1 
-1 
-1 
-1 
-1 
-1 
-1 
-1 
-1 
-1 
-1 
-1 
-1 
-1 
-1 
-1 
-1 
-1 
-1 
-1 
-1 
-1 
-1 
-1 
-1 
-1 
-1 
-1 
-1 
-1 
-1 
-1 
-1 
-1 
-1 
-1 
-1 
-1 
-1 
-1 
-1 
-1 
-1 
-1 
-1 
-1 
-1 
-1 
-1 
-1 
-1 
-1 
-1 
-1 
-1 
-1 
-1 
-1 
-1 
-1 
-1 
-1 
-1 
-1 
-1 
-1 
-1 
-1 
-1 
-1 
-1 
-1 
-1 
-1 
-1 
-1 
-1 
-1 
-1 
-1 
-1 
-1 
-1 
-1 
-1 
-1 
-1 
-1 
-1 
-1 
-1 
-1 
-1 
-1 
-1 
-1 
-1 
-1 
-1 
-1 
-1 
-1 
-1 
-1 
-1 
-1 
-1 
-1 
-1 
-1 
-1 
-1 
-1 
-1 
-1 
-1 
-1 
-1 
-1 
-1 
-1 
-1 
-1 
-1 
-1 
-1 
-1 
-1 
-1 
-1 
-1 
-1 
-1 
-1 
-1 
-1 
-1 
-1 
-1 
-1 
-1 
-1 
-1 
-1 
-1 
-1 
-1 
-1 
-1 
-1 
-1 
-1 
-1 
-1 
-1 
-1 
-1 
-1 
-1 
-1 
-1 
-1 
-1 
-1 
-1 
-1 
-1 
-1 
-1 
-1 
-1 
-1 
-1 
-1 
-1 
-1 
-1 
-1 
-1 
-1 
-1 
-1 
-1 
-1 
-1 
-1 
-1 
-1 
-1 
-1 
-1 
-1 
-1 
-1 
-1 
-1 
-1 
-1 
-1 
-1 
-1 
-1 
-1 
-1 
-1 
-1 
-1 
-1 
-1 
-1 
-1 
-1 
-1 
-1 
-1 
-1 
-1 
-1 
-1 
-1 
-1 
-1 
-1 
-1 
-1 
-1 
-1 
-1 
-1 
-1 
-1 
-1 
-1 
-1 
-1 
-1 
-1 
-1 
-1 
-1 
-1 
-1 
-1 
-1 
-1 
-1 
-1 
-1 
-1 
-1 
-1 
-1 
-1 
-1 
-1 
-1 
-1 
-1 
-1 
-1 
-1 
-1 
-1 
-1 
-1 
-1 
-1 
-1 
-1 
-1 
-1 
-1 
-1 
-1 
-1 
-1 
-1 
-1 
-1 
-1 
-1 
-1 
-1 
-1 
-1 
-1 
-1 
-1 
-1 
-1 
-1 
-1 
-1 
-1 
-1 
-1 
-1 
-1 
-1 
-1 
-1 
-1 
-1 
-1 
-1 
-1 
-1 
-1 
-1 
-1 
-1 
-1 
-1 
-1 
-1 
-1 
-1 
-1 
-1 
-1 
-1 
-1 
-1 
-1 
-1 
-1 
-1 
-1 
-1 
-1 
-1 
-1 
-1 
-1 
-1 
-1 
-1 
-1 
-1 
-1 
-1 
-1 
-1 
-1 
-1 
-1 
-1 
-1 
-1 
-1 
-1 
-1 
-1 
-1 
-1 
-1 
-1 
-1 
-1 
-1 
-1 
-1 
-1 
-1 
-1 
-1 
-1 
-1 
-1 
-1 
-1 
-1 
-1 
-1 
-1 
-1 
-1 
-1 
-1 
-1 
-1 
-1 
-1 
-1 
-1 
-1 
-1 
-1 
-1 
-1 
-1 
-1 
-1 
-1 
-1 
-1 
-1 
-1 
-1 
-1 
-1 
-1 
-1 
-1 
-1 
-1 
-1 
-1 
-1 
-1 
-1 
-1 
-1 
-1 
-1 
-1 
-1 
-1 
-1 
-1 
-1 
-1 
-1 
-1 
-1 
-1 
-1 
-1 
-1 
-1 
-1 
-1 
-1 
-1 
-1 
-1 
-1 
-1 
-1 
-1 
-1 
-1 
-1 
-1 
-1 
-1 
-1 
-1 
-1 
-1 
-1 
-1 
-1 
-1 
-1 
-1 
-1 
-1 
-1 
-1 
-1 
-1 
-1 
-1 
-1 
-1 
-1 
-1 
-1 
-1 
-1 
-1 
-1 
-1 
-1 
-1 
-1 
-1 
-1 
-1 
-1 
-1 
-1 
-1 
-1 
-1 
-1 
-1 
-1 
-1 
-1 
-1 
-1 
-1 
-1 
-1 
-1 
-1 
-1 
-1 
-1 
-1 
-1 
-1 
-1 
-1 
-1 
-1 
-1 
-1 
-1 
-1 
-1 
-1 
-1 
-1 
-1 
-1 
-1 
-1 
-1 
-1 
-1 
-1 
-1 
-1 
-1 
-1 
-1 
-1 
-1 
-1 
-1 
-1 
-1 
-1 
-1 
-1 
-1 
-1 
-1 
-1 
-1 
-1 
-1 
-1 
-1 
-1 
-1 
-1 
-1 
-1 
-1 
-1 
-1 
-1 
-1 
-1 
-1 
-1 
-1 
-1 
-1 
-1 
-1 
-1 
-1 
-1 
-1 
-1 
-1 
-1 
-1 
-1 
-1 
-1 
-1 
-1 
-1 
-1 
-1 
-1 
-1 
-1 
-1 
-1 
-1 
-1 
-1 
-1 
-1 
-1 
-1 
-1 
-1 
-1 
-1 
-1 
-1 
-1 
-1 
-1 
-1 
-1 
-1 
-1 
-1 
-1 
-1 
-1 
-1 
-1 
-1 
-1 
-1 
-1 
-1 
-1 
-1 
-1 
-1 
-1 
-1 
-1 
-1 
-1 
-1 
-1 
-1 
-1 
-1 
-1 
-1 
-1 
-1 
-1 
-1 
-1 
-1 
-1 
-1 
-1 
-1 
-1 
-1 
-1 
-1 
-1 
-1 
-1 
-1 
-1 
-1 
-1 
-1 
-1 
-1 
-1 
-1 
-1 
-1 
-1 
-1 
-1 
-1 
-1 
-1 
-1 
-1 
-1 
-1 
-1 
-1 
-1 
-1 
-1 
-1 
-1 
-1 
-1 
-1 
-1 
-1 
-1 
-1 
-1 
-1 
-1 
-1 
-1 
-1 
-1 
-1 
-1 
-1 
-1 
-1 
-1 
-1 
-1 
-1 
-1 
-1 
-1 
-1 
-1 
-1 
-1 
-1 
-1 
-1 
-1 
-1 
-1 
-1 
-1 
-1 
-1 
-1 
-1 
-1 
-1 
-1 
-1 
-1 
-1 
-1 
-1 
-1 
-1 
-1 
-1 
-1 
-1 
-1 
-1 
-1 
-1 
-1 
-1 
-1 
-1 
-1 
-1 
-1 
-1 
-1 
-1 
-1 
-1 
-1 
-1 
-1 
-1 
-1 
-1 
-1 
-1 
-1 
-1 
-1 
-1 
-1 
-1 
-1 
-1 
-1 
-1 
-1 
-1 
-1 
-1 
-1 
-1 
-1 
-1 
-1 
-1 
-1 
-1 
-1 
-1 
-1 
-1 
-1 
-1 
-1 
-1 
-1 
-1 
-1 
-1 
-1 
-1 
-1 
-1 
-1 
-1 
-1 
-1 
-1 
-1 
-1 
-1 
-1 
-1 
-1 
-1 
-1 
-1 
-1 
-1 
-1 
-1 
-1 
-1 
-1 
-1 
-1 
-1 
-1 
-1 
-1 
-1 
-1 
-1 
-1 
-1 
-1 
-1 
-1 
-1 
-1 
-1 
-1 
-1 
-1 
-1 
-1 
-1 
-1 
-1 
-1 
-1 
-1 
-1 
-1 
-1 
-1 
-1 
-1 
-1 
-1 
-1 
-1 
-1 
-1 
-1 
-1 
-1 
-1 
-1 
-1 
-1 
-1 
-1 
-1 
-1 
-1 
-1 
-1 
-1 
-1 
-1 
-1 
-1 
-1 
-1 
-1 
-1 
-1 
-1 
-1 
-1 
-1 
-1 
-1 
-1 
-1 
-1 
-1 
-1 
-1 
-1 
-1 
-1 
-1 
-1 
-1 
-1 
-1 
-1 
-1 
-1 
-1 
-1 
-1 
-1 
-1 
-1 
-1 
-1 
-1 
-1 
-1 
-1 
-1 
-1 
-1 
-1 
-1 
-1 
-1 
-1 
-1 
-1 
-1 
-1 
-1 
-1 
-1 
-1 
-1 
-1 
-1 
-1 
-1 
-1 
-1 
-1 
-1 
-1 
-1 
-1 
-1 
-1 
-1 
-1 
-1 
-1 
-1 
-1 
-1 
-1 
-1 
-1 
-1 
-1 
-1 
-1 
-1 
-1 
-1 
-1 
-1 
-1 
-1 
-1 
-1 
-1 
-1 
-1 
-1 
-1 
-1 
-1 
-1 
-1 
-1 
-1 
-1 
-1 
-1 
-1 
-1 
-1 
-1 
-1 
-1 
-1 
-1 
-1 
-1 
-1 
-1 
-1 
-1 
-1 
-1 
-1 
-1 
-1 
-1 
-1 
-1 
-1 
-1 
-1 
-1 
-1 
-1 
-1 
-1 
-1 
-1 
-1 
-1 
-1 
-1 
-1 
-1 
-1 
-1 
-1 
-1 
-1 
-1 
-1 
-1 
-1 
-1 
-1 
-1 
-1 
-1 
-1 
-1 
-1 
-1 
-1 
-1 
-1 
-1 
-1 
-1 
-1 
-1 
VECTORS G_average double
-1.113313023 -2.663516128 0 
-1.009710532 -2.675127968 0 
-3.857849439 -0.7287189598 0 
-3.658305186 -1.048061269 0 
-3.941186565 -0.8911259656 0 
-3.806033171 -0.9064238131 0 
-3.827782485 -0.9923073838 0 
-4.066629287 -0.9857002145 0 
-1.056343158 -4.381985711 0 
-1.114209884 -4.374475461 0 
-0.7689457097 -4.005380192 0 
-0.6868359657 -4.224976843 0 
-0.5835590311 -4.061827175 0 
-0.6827607353 -4.094925208 0 
-1.036860053 -4.299367162 0 
-1.198438215 -4.21730303 0 
-2.875808345 -0.6482705886 0 
-3.9864731 -1.109876236 0 
-4.087437433 -1.179267289 0 
-4.047375228 -0.8823843542 0 
-4.138701618 -1.00496418 0 
-4.20525561 -1.03851726 0 
-1.052165986 -2.644485361 0 
-1.017423176 -2.60456695 0 
-0.6680453631 -3.685120239 0 
-0.9116304417 -4.06667365 0 
-3.904775846 0.7004663003 0 
-3.852006181 -0.8066190835 0 
-4.178259968 -0.9981620006 0 
-4.18276054 -0.9794272918 0 
-3.994039957 0.8331040152 0 
-3.827330712 -0.9154750365 0 
-4.205198292 -0.9918968581 0 
-4.230145216 -0.9429657291 0 
-2.893710731 -0.8434597843 0 
-2.418139491 -1.006265646 0 
-2.29848111 -0.3835015525 0 
-3.523261041 -0.6928868398 0 
-2.599855895 0.04006353421 0 
-3.915346494 -1.001161677 0 
-1.094144869 -4.375281822 0 
-1.075301337 -4.330670383 0 
-1.044336773 -4.479496887 0 
-1.036621745 -3.942682232 0 
-1.03700122 -2.404601101 0 
-0.7100310475 -3.835541848 0 
-0.6794618312 -3.185004597 0 
-0.525368322 -4.134716313 0 
-0.783814392 -2.52187339 0 
-0.8837409796 -2.747047585 0 
-0.5197822337 -3.988951245 0 
-0.8547819483 -2.329016932 0 
-1.094049459 -3.795841388 0 
-1.223373332 -4.046831472 0 
-1.380579494 -2.945934184 0 
-0.9194916219 -3.197044232 0 
-0.9493212491 -2.964651796 0 
-1.439325943 -2.576186354 0 
-1.397662287 -4.360771979 0 
-0.8054655417 -4.314302979 0 
-1.106261624 -4.358091408 0 
-1.088413574 -4.406048487 0 
-2.449041324 -0.998272429 0 
-2.524315364 -1.133038815 0 
-2.506021278 -0.9908816282 0 
-2.529997076 -0.9761786175 0 
-2.755567036 -1.027239736 0 
-2.584143537 -0.9882486363 0 
-1.037836512 -2.597113899 0 
-0.9808723707 -2.60708341 0 
-4.184004427 -0.9415999324 0 
-4.192124324 -0.9918771782 0 
-1.082561015 -4.387156811 0 
-1.010588043 -4.38391712 0 
-0.9612383249 -2.732733555 0 
-0.9320963713 -2.715116484 0 
-0.8512473408 -4.499851159 0 
-0.6315581269 -2.937077609 0 
-2.572757441 -0.9261534429 0 
-2.63940209 -0.8170118904 0 
-3.747089899 -1.229821243 0 
-2.712545488 -0.5145703187 0 
-3.988587974 -1.041031006 0 
-2.490147571 -0.9794019399 0 
-5.589780888 0.4868346962 0 
-5.478431974 0.3763343716 0 
-4.128073556 0.4080219377 0 
-3.983446772 0.627198803 0 
-3.551611559 0.2445992989 0 
-3.958597046 0.04041444427 0 
-4.164952948 -1.050519503 0 
-4.209825203 -0.5010605044 0 
-4.092801049 -0.732433488 0 
-3.843561217 -0.4719341149 0 
-3.791378967 -0.3016933722 0 
-3.794363384 -0.5745556748 0 
-3.329790094 -0.6108380458 0 
-2.786324898 -0.6749197123 0 
-2.555705291 0.2023221455 0 
-3.631135453 -0.7443931124 0 
-2.474081058 0.1391496728 0 
-2.832715427 0.1030813836 0 
-2.992664351 0.09764680702 0 
-3.194624866 0.5590780831 0 
-3.957802375 0.9450886128 0 
-3.593868937 0.4931700896 0 
-3.269156871 0.5324437053 0 
-3.735837011 0.6570982206 0 
-1.113231953 -4.285914442 0 
-1.193855924 -4.451420386 0 
-0.5547831346 -4.250956142 0 
-1.092041339 -4.374205817 0 
-0.4342655792 -4.394417622 0 
-1.033882757 -2.353116049 0 
-0.4162917037 -3.610689279 0 
-0.5413713462 -3.421457224 0 
-0.5774883107 -3.794205548 0 
-0.6078771533 -3.659127961 0 
-1.09920467 -5.095833072 0 
-0.8363906014 -4.946809987 0 
-0.8103992508 -4.010269899 0 
-0.6735380633 -3.981363119 0 
-0.3033377337 -3.708216475 0 
-0.6200232816 -3.634651098 0 
-0.7409276707 -3.002216348 0 
-0.8566132733 -2.912133818 0 
-0.4032683574 -4.017998348 0 
-0.7709544078 -2.364707206 0 
-0.8696691786 -2.361325787 0 
-0.8388584036 -2.337390073 0 
-0.8701428609 -2.615554609 0 
-1.189905296 -2.467734408 0 
-1.029711825 -2.551750659 0 
-1.065448528 -2.764534289 0 
-1.1647296 -4.414494153 0 
-1.305967685 -4.503203149 0 
-1.114769723 -4.402122854 0 
-1.058086529 -4.400158025 0 
-1.065782725 -4.383843448 0 
-1.136534551 -4.430013256 0 
-1.060055434 -4.302122698 0 
-1.215534591 -4.328193312 0 
-2.918775542 -0.8940646166 0 
-4.164771458 -1.120664439 0 
-2.648987927 -0.9667741325 0 
-2.961762075 -1.487074513 0 
-2.604409958 -1.001637143 0 
-2.516105461 -0.8846151538 0 
-2.491757379 -0.9854576765 0 
-2.359771832 -1.049910678 0 
-2.77932692 -0.6151562441 0 
-2.491322144 -0.9233284977 0 
-4.004589418 -1.645984483 0 
-4.265916678 -1.244730738 0 
-4.206435337 -1.036901166 0 
-4.2914411 -1.030281268 0 
-4.254936815 -0.9927981582 0 
-4.216566749 -1.012171497 0 
-4.261146009 -1.112441094 0 
-4.258114614 -1.058093772 0 
-2.458355654 -0.9690677391 0 
-2.506107886 -0.9822497056 0 
-2.284625441 -2.379069799 0 
-3.150314764 -1.747279488 0 
-2.568962452 -0.9320846679 0 
-2.509189919 -1.006279535 0 
-1.038636141 -2.613560943 0 
-0.9732017628 -2.653178628 0 
-1.020553784 -2.614389185 0 
-1.07340079 -2.561005796 0 
-2.187076158 -2.250768935 0 
-2.241773282 -2.061693185 0 
-0.9349655443 -2.676965415 0 
-0.9918152605 -2.6613839 0 
-5.034480493 -0.7347882541 0 
-4.929313485 -0.6831525555 0 
-4.213903843 -0.9669639401 0 
-4.276405878 -0.9111147918 0 
-4.270294349 -1.155256729 0 
-4.368558542 -1.021022668 0 
-3.665033969 -1.841343064 0 
-3.948906612 -1.501455073 0 
-1.096665527 -4.464049193 0 
-1.254024224 -4.587964448 0 
-1.051039728 -4.157618086 0 
-0.9517112781 -4.09373955 0 
-0.827700028 -4.120603673 0 
-0.8812165274 -4.15147656 0 
-0.1439617093 -2.107440033 0 
-0.6360860388 -3.601614809 0 
-0.6101441966 -2.734787705 0 
-0.8839737593 -2.26487207 0 
-1.101396703 -2.873855013 0 
-0.927510527 -2.737347348 0 
-0.9276385114 -2.711387788 0 
-0.9377773427 -2.736247444 0 
-1.361135106 -4.234101833 0 
-0.730559446 -2.846958224 0 
-2.497951303 -3.679274124 0 
-2.317048455 -3.967044816 0 
-2.498971442 -4.149025222 0 
-2.437312496 -4.018848628 0 
-3.915672147 -2.468835872 0 
-3.817639552 -2.257680876 0 
-3.875084625 -2.626824627 0 
-2.113873908 -2.179855376 0 
-2.581227914 -0.9082388594 0 
-2.524958432 -0.9174336546 0 
-2.557968368 -0.8212293962 0 
-2.705644055 -1.213543528 0 
-4.074873124 -1.348527197 0 
-2.515100793 -0.4080803425 0 
-4.213894267 0.2380997996 0 
-4.709194245 0.456888662 0 
-5.579277936 -0.1405397117 0 
-5.451481142 0.2484212402 0 
-4.132566047 -0.4849500627 0 
-4.12627175 -0.3998006841 0 
-2.244391757 -2.452754985 0 
-1.090364829 -3.572927616 0 
-0.3650906315 -3.716936875 0 
-0.3364268647 -3.977600108 0 
-2.557036785 -4.195962945 0 
-2.600790784 -3.955102589 0 
-3.643288071 0.2017043018 0 
-3.973206551 -0.3163458612 0 
-2.857563679 0.1755653908 0 
-3.582314395 -0.6119392923 0 
-2.671248719 0.3412157387 0 
-2.631450067 0.3394357782 0 
-3.925947331 0.5966408177 0 
-3.729976887 0.9538992254 0 
-3.93479269 0.9118393424 0 
-2.69047026 -0.3706191516 0 
-4.215384404 -1.040162608 0 
-4.262279874 -1.01871849 0 
-4.181495598 -1.028104337 0 
-4.153622504 -0.9663661963 0 
-4.201769589 -1.093737021 0 
-3.898875856 -0.1461339702 0 
-4.01431615 -1.04032808 0 
-4.094534015 -1.028537997 0 
-3.990536418 -0.9445693659 0 
-4.093375158 -0.4663121107 0 
-3.915631055 -0.782206342 0 
-3.963005748 0.1496687786 0 
-4.250024762 0.8306308024 0 
-4.343655616 0.6180027678 0 
-3.836587864 -0.2582987579 0 
-3.288946945 0.671585979 0 
-2.615912989 0.06177069134 0 
-2.963871999 -0.3017946973 0 
-2.975054077 0.1671657844 0 
-2.824459582 0.6157987616 0 
-4.130522992 0.8385777452 0 
-4.188861405 0.9597215157 0 
-1.051339162 -4.358154145 0 
-1.135143521 -4.348911912 0 
-1.093954289 -5.395071092 0 
-1.156035406 -4.357636005 0 
-0.236306767 -3.229614636 0 
-0.9188174164 -3.082166412 0 
-0.6259447636 -4.695199269 0 
-0.8801252177 -2.531724589 0 
-0.5932958084 -3.931739113 0 
-0.8873467753 -3.090038328 0 
-0.760053319 -3.62893625 0 
-0.686732858 -3.456485727 0 
-0.7789964878 -3.399490071 0 
-0.5321751189 -4.259397504 0 
-0.9848490029 -4.9053047 0 
-0.9442418806 -5.310194653 0 
-0.3710793109 -3.690595115 0 
-0.9066145695 -3.703774096 0 
-0.8808086907 -4.190331819 0 
-0.7147926524 -3.765252448 0 
-1.011488039 -4.104159138 0 
-1.070851559 -4.279248595 0 
-1.009740388 -4.03439849 0 
-0.950226909 -4.04628235 0 
-0.3687333148 -3.109956731 0 
-0.9998145087 -2.553687135 0 
-0.7298795978 -3.790516082 0 
-0.6388102347 -3.67069179 0 
-0.4294361546 -3.355827691 0 
-0.2273294948 -4.029107349 0 
0.6804312117 -3.661995192 0 
-0.5194129382 -3.575879355 0 
-0.459542728 -2.792590656 0 
-0.1657551844 -2.759906353 0 
-0.6391393393 -2.409727362 0 
-0.5595089883 -3.001435198 0 
-0.4530345785 -4.113688922 0 
-0.7329724441 -2.080070353 0 
-0.9567977116 -2.210236913 0 
-2.433251666 -4.437714551 0 
-1.066887625 -2.498494511 0 
-0.4795909101 -2.796971775 0 
-0.988829583 -2.518741727 0 
-1.098331932 -2.749580151 0 
-1.168470808 -4.304718574 0 
-1.077318596 -4.458115693 0 
-1.05522313 -4.407123517 0 
-1.129696834 -4.461124135 0 
-1.015300596 -4.470649036 0 
-1.091013788 -4.399154864 0 
-2.531903419 -3.897648761 0 
-2.279249147 -4.125499889 0 
-2.357615435 -4.191375453 0 
-2.540247558 -4.007147822 0 
-3.966295255 -0.07970902816 0 
-3.229279064 -1.00995413 0 
-2.448549367 -1.691840729 0 
-3.165624252 -1.239149717 0 
-2.703367261 -0.8864988613 0 
-2.472681309 -0.9028232796 0 
-4.03428731 -2.485816257 0 
-4.18648258 -2.190391024 0 
-2.537591024 -2.217656005 0 
-4.273762528 -0.9286824311 0 
-4.129614782 -2.576974271 0 
-4.04998264 -2.566340612 0 
-3.82650115 -2.241671561 0 
-3.763917948 -2.405644158 0 
-3.991650088 -2.426098138 0 
-4.122324055 -2.811635178 0 
-4.243831248 -1.007399654 0 
-4.1264194 -1.009654152 0 
-4.241632021 -1.00882574 0 
-4.260655778 -1.020530994 0 
-3.860888181 -0.8488095548 0 
-4.072449201 -0.9946356536 0 
-2.616563087 -0.9623537378 0 
-2.760276457 -0.7464025011 0 
-2.359063087 -2.467488618 0 
-2.38162506 -2.647063098 0 
-2.48532942 -1.001968775 0 
-3.73897543 -1.260731264 0 
-2.446537344 -1.01857106 0 
-2.633871039 -0.9919286022 0 
-2.559165611 -0.9530161445 0 
-2.562631988 -0.9392314607 0 
-0.9346082805 -2.690379707 0 
-1.132087124 -2.697625083 0 
-0.8821649034 -2.757824286 0 
-0.8786892184 -2.67800932 0 
-2.2075711 -2.529237427 0 
-2.440092063 -2.68752886 0 
-1.008368876 -2.481803289 0 
-0.891450157 -2.58916423 0 
-4.097853265 -0.8554507754 0 
-4.143108266 -1.05471418 0 
-4.141302997 0.1148390005 0 
-5.559488661 -0.9975506761 0 
-4.472258734 -1.165153049 0 
-4.209192079 -0.8773466738 0 
-3.522993842 -2.362980788 0 
-4.146039661 -1.823500476 0 
-4.028775474 -2.337996148 0 
-3.832273345 -2.361906471 0 
-2.200869318 -3.752530361 0 
-1.196314389 -4.15627014 0 
-1.000153373 -4.346419634 0 
-1.035207852 -4.411750954 0 
-1.136070761 -4.262100564 0 
-1.146356629 -4.176323161 0 
-0.9673253463 -4.43474481 0 
-0.3582475797 -3.775038183 0 
-0.8289873079 -5.391030233 0 
-1.006375388 -5.427066934 0 
-0.7771155468 -3.48060396 0 
-0.4251784934 -2.803944634 0 
-0.854190871 -2.853198608 0 
-0.9515720967 -2.678213581 0 
-1.631536307 -3.369422257 0 
-0.6990425664 -2.742460028 0 
-0.8493397299 -2.682982349 0 
-0.9152961801 -2.646974768 0 
-1.743367756 -2.217790593 0 
-1.261333913 -2.694808237 0 
-2.464511151 -2.425078964 0 
-1.099777578 -4.180124621 0 
-2.552386494 -2.366584217 0 
-2.759761635 -2.409131848 0 
-2.425132065 -4.406352493 0 
-2.574386468 -4.239702009 0 
-4.150269037 -2.44883897 0 
-3.968833185 -2.54890277 0 
-2.615179275 -2.416571233 0 
-3.674214051 -2.616884859 0 
-2.929901986 -1.227929977 0 
-2.190671625 -2.063535347 0 
-1.644246304 -2.758283996 0 
-1.994592561 -2.522845901 0 
-2.47943967 -0.9516657885 0 
-2.636907329 -0.8844946054 0 
-2.548530237 -0.8865295179 0 
-4.241968432 -1.372683957 0 
-4.532114279 -1.25206357 0 
-2.903488853 -0.3399809329 0 
-4.182255908 0.7828219556 0 
-4.10247107 0.8447586885 0 
-5.590254171 -0.2226959797 0 
-5.349300087 -0.09605603764 0 
-5.261612035 0.3635078008 0 
-4.422331854 0.3509776032 0 
-5.694938971 0.2934813799 0 
-4.179711218 0.5327011407 0 
-5.527913429 0.1343203938 0 
-4.16474927 -0.2867571863 0 
-3.836176154 -0.4880782514 0 
-4.404737562 -0.3626299223 0 
-2.265033308 -2.366271814 0 
-0.9977112355 -2.590356997 0 
-2.395362187 -4.262855059 0 
-2.691706504 -3.890884512 0 
-2.501552022 -4.146249914 0 
-2.183030193 -4.160757881 0 
-1.29933529 -4.749498937 0 
-0.8250746046 -4.065550783 0 
-0.008067526208 -3.654526503 0 
-0.07624870978 -3.610908708 0 
-0.3704996699 -3.941193454 0 
-1.257568947 -5.165496928 0 
-2.573902981 -4.197608839 0 
-2.622663454 -4.201279151 0 
-3.97710306 -2.232183585 0 
-4.168728967 -2.457100702 0 
-4.035485851 0.7894946327 0 
-4.384112165 0.7877198415 0 
-5.096021387 0.06365043208 0 
-5.176607523 0.01839250212 0 
-2.993031039 0.491153557 0 
-3.619472506 -0.5531970944 0 
-3.840747083 0.6545977692 0 
-3.166662095 0.3327066313 0 
-3.623530919 0.7292406501 0 
-2.714163565 -0.2231209434 0 
-3.962360528 1.267059311 0 
-4.16598877 -0.8101516383 0 
-4.183105434 -1.102769447 0 
-4.224483853 -1.058265446 0 
-4.203423596 -1.080643991 0 
-5.233973944 -0.7645934102 0 
-4.214213236 -1.231353248 0 
-4.011895925 -0.7949204252 0 
-4.185333786 -1.236540316 0 
-3.913684352 -0.8977870478 0 
-3.756349435 -1.073602109 0 
-3.908302299 0.01671109624 0 
-3.990653366 0.1364822302 0 
-3.909847239 0.102569942 0 
-4.56221437 0.1189394575 0 
-5.482299695 0.2742744438 0 
-4.160301263 0.8109652433 0 
-4.303876185 0.9031195411 0 
-4.188511243 0.8456161428 0 
-2.80050077 1.011166585 0 
-2.338498505 0.03876814578 0 
-2.836964171 -0.1562889609 0 
-2.543622468 0.9921797081 0 
-2.452622111 0.795461731 0 
-2.440998306 -0.672941046 0 
-3.359339917 -0.3873098815 0 
-2.459956135 1.004565535 0 
-2.66798239 1.002913833 0 