# vtk DataFile Version 3.0
MOAB 5.5.0
ASCII
DATASET UNSTRUCTURED_GRID
POINTS 1568 double
82.25230654 176.2924732 0
84.65630287 178.7297902 0
187.4611102 54.91642295 0
185.4119627 59.76371164 0
178.8349382 56.44359545 0
183.7320119 53.94165662 0
182.6677669 58.63834954 0
175.2243617 59.09558184 0
55.85204371 172.3728071 0
61.22671107 168.9007018 0
55.61257357 183.0992033 0
53.13287398 179.8100599 0
51.90568942 182.9749789 0
53.61710931 181.9288116 0
58.1580643 174.9181587 0
63.50996504 176.5377358 0
186.8738722 63.55820286 0
177.9800657 64.1170925 0
174.9270477 65.90800788 0
176.3774237 56.25216649 0
172.0011545 59.31557307 0
167.2606051 62.60162014 0
84.18747373 176.664281 0
87.14851751 176.3468464 0
53.03804369 186.8649211 0
57.87550324 181.0572472 0
185.17404 49.74072094 0
185.645678 53.635536 0
166.2767091 52.17080349 0
170.2954505 56.13710952 0
182.9394019 50.05363565 0
182.5762873 55.68929885 0
164.5480875 57.51717807 0
172.1823389 53.71114979 0
189.4202127 53.3591524 0
192.0052431 56.02940945 0
192.5129908 60.19275654 0
190.5843923 57.96854822 0
188.612478 51.23754319 0
180.2249631 59.36190901 0
58.48213002 167.5207848 0
51.65396435 164.2189456 0
53.24742493 173.3684471 0
60.95461195 182.4149889 0
48.79877993 187.3979296 0
55.46119177 186.0585749 0
60.93243219 187.0101399 0
50.59694743 181.5429398 0
49.14573003 190.6562032 0
46.94224274 188.2915455 0
51.4780056 184.9517168 0
54.77358768 191.4886368 0
70.13501853 178.6950902 0
63.8113121 180.1022137 0
77.86048027 175.8627223 0
73.25668977 178.5448888 0
76.22931547 180.6023225 0
79.21363635 174.0896623 0
68.70219622 175.2125996 0
54.15959806 177.8723269 0
53.05771527 167.4596969 0
62.17075485 164.1263512 0
173.3831535 83.49929302 0
176.1880238 81.37998205 0
174.0310509 87.88230391 0
172.5453572 88.63673621 0
179.7874605 78.84829485 0
179.7499094 83.59082896 0
88.2679403 175.1749842 0
87.58873056 177.9557432 0
160.8098592 52.44698208 0
167.0816052 55.34486408 0
59.22978219 164.1991834 0
52.41556514 156.9741665 0
83.53776653 182.1112844 0
87.04631325 184.0689478 0
52.80628053 175.8370031 0
68.61953053 185.9895853 0
184.067071 86.02219353 0
186.1537399 79.33593178 0
180.5638878 67.20940753 0
187.0112044 72.13556812 0
178.0633722 61.16507219 0
194.1330765 56.4707981 0
174.2886557 23.97693136 0
176.3769481 25.94759516 0
190.9338802 33.31336599 0
193.3312804 34.81719052 0
188.7856574 40.38802579 0
188.388262 34.82101428 0
170.5367602 62.16342931 0
176.138161 51.7841303 0
159.6896741 40.4608671 0
162.8918532 36.22815413 0
164.6979835 34.07917532 0
167.2686508 36.97171995 0
184.5519077 67.32831896 0
192.8337607 52.69044617 0
188.884976 47.84717936 0
188.0016236 57.41889497 0
189.7027211 49.60055004 0
187.3797718 45.35859961 0
188.2016852 42.01148144 0
192.2293098 41.61018802 0
196.6294842 37.092814 0
191.2239818 38.15880479 0
190.959725 40.12492445 0
192.9555559 37.35832811 0
60.94436489 174.347806 0
51.26635821 171.8388975 0
51.25910079 179.7193545 0
56.00268601 168.9366241 0
50.23363358 178.2454144 0
52.19635087 189.0154401 0
36.64245963 190.1731305 0
38.51489131 187.5236207 0
33.39586816 187.7950419 0
35.35897617 187.3027544 0
26.58005934 177.0516699 0
25.70708315 172.6538223 0
36.18687323 163.7715323 0
31.01647883 160.9745357 0
35.42989299 193.3301835 0
40.06960389 188.5307556 0
43.44501753 188.6293408 0
45.26113965 187.4381926 0
48.1330671 183.791811 0
51.61957229 192.5999859 0
57.40763961 193.1640981 0
53.07449603 190.9660443 0
88.44309556 170.5070288 0
90.40013978 169.6361494 0
84.53677712 172.1944441 0
81.1707041 178.8085265 0
66.47070771 169.5336721 0
70.37608529 173.2780799 0
63.05848585 166.7862667 0
59.20274391 158.1913897 0
57.54734108 161.6489706 0
68.78907055 169.4248177 0
68.06508415 156.682501 0
68.60822149 152.5574623 0
180.9821942 75.65257785 0
172.1389247 65.12586584 0
181.2559485 81.4204208 0
175.4005461 77.21702884 0
171.9445322 90.6481158 0
168.8458369 88.64108696 0
173.7082597 86.22613791 0
173.9052359 81.69886412 0
166.9817228 88.82682853 0
169.7132217 87.06769894 0
150.129912 72.41162643 0
152.2113289 70.65105861 0
156.5943138 67.70989464 0
154.6475313 63.79696541 0
158.9446761 61.32649186 0
164.7817012 60.74220648 0
170.2499701 67.42032039 0
164.4096836 66.13811289 0
171.8722845 84.24834274 0
177.0129877 86.87322161 0
170.3482395 95.86532494 0
166.4960184 90.95548417 0
182.2401295 86.5694532 0
176.2570785 85.06283362 0
85.45708251 175.5645658 0
86.36612469 179.2389719 0
87.5912603 173.4804767 0
89.81488528 175.5286644 0
92.44732639 166.5352707 0
93.36643692 171.2978038 0
87.04119905 180.9846693 0
88.60817667 172.273503 0
157.1690123 33.97098941 0
160.1410198 29.20735286 0
161.3387541 56.08713926 0
154.9803873 55.67347056 0
152.2181447 68.09570456 0
151.4232294 62.68326919 0
146.6198301 72.03753333 0
154.2263665 73.80858722 0
63.12775746 151.3408002 0
66.50387615 149.8253861 0
44.6796256 164.8689036 0
41.3437499 164.0899025 0
37.97355507 160.3629868 0
40.93522012 160.8637558 0
40.57371977 209.3341576 0
38.62318551 206.0290108 0
64.80927747 194.4253796 0
55.14711922 193.4982613 0
78.84211784 178.5298266 0
83.28293343 184.4500738 0
85.83814832 185.729245 0
88.8548416 184.2673203 0
74.00956854 175.4722227 0
73.03020268 187.6698487 0
92.18624075 164.4160906 0
90.45164283 162.1501053 0
85.15188474 149.1226491 0
79.86056502 148.3503018 0
160.022453 91.27400961 0
161.4166143 89.79311757 0
160.8733939 93.87611823 0
168.4427298 92.22882827 0
184.9452448 84.18485152 0
188.5552456 86.60590607 0
188.6391888 81.22807489 0
177.0846025 79.09817105 0
175.435164 69.06357774 0
194.4741044 67.33626457 0
167.1690046 28.58547244 0
171.8307423 25.58736903 0
177.9869215 30.51097912 0
172.6821019 28.07133556 0
183.1298886 33.26743402 0
181.6614129 32.32236721 0
94.60401463 167.4190217 0
88.93205123 166.6400487 0
34.71621088 191.592282 0
29.9443033 190.6641922 0
91.89711216 157.2225637 0
93.50489367 162.3029802 0
189.0540881 37.1253155 0
185.1008137 32.60195984 0
186.3907098 42.44469489 0
185.8612612 38.4788956 0
189.9836515 46.40997125 0
184.8901732 41.39582304 0
186.4167755 51.28418197 0
182.7247134 46.88229674 0
181.9420037 48.50162337 0
191.3921316 63.43759452 0
169.8172725 50.6468856 0
171.4307628 51.52479951 0
167.9477805 50.55714448 0
163.2142964 50.70296029 0
172.8955309 50.04474384 0
178.4537431 51.22810001 0
165.9623401 45.54900264 0
165.8109454 47.51707058 0
164.1761295 44.27772763 0
159.4588833 37.35070863 0
163.0966714 40.60777125 0
169.5152887 30.55498995 0
203.4086278 36.92545235 0
207.4500609 34.338668 0
198.3653415 56.7872357 0
202.0918384 59.03195994 0
187.2492956 47.18435015 0
194.6570021 53.29835462 0
186.133267 44.2839304 0
192.4960868 44.89235969 0
197.8420155 33.25719174 0
200.0236443 36.90856199 0
53.53651461 161.5148104 0
62.13315084 171.3557788 0
49.36966225 174.9005286 0
50.92600624 169.3663303 0
41.4913403 191.3618919 0
41.74503219 187.59101 0
50.75408924 176.300796 0
50.09090131 189.0068106 0
49.34419142 185.4933547 0
45.00286299 185.3210197 0
35.58500721 185.3361209 0
38.65706768 185.7534901 0
37.15210321 184.6431771 0
28.12360909 187.617533 0
24.49376875 175.5366544 0
30.18493929 176.5602841 0
24.2440228 169.3408624 0
30.96799634 170.3328041 0
34.41702985 158.0304135 0
30.15172726 167.9017584 0
42.97130482 165.0289286 0
48.66397649 164.2228494 0
42.24912961 166.7554365 0
40.20809518 165.2278781 0
57.79621489 201.459494 0
58.18629814 195.2752559 0
35.79275423 204.3809049 0
38.69932912 204.5041138 0
34.97701827 200.1722879 0
37.86635625 196.2406471 0
38.91102491 197.8329435 0
36.7838958 188.3799413 0
44.46793399 191.7214319 0
43.57005305 193.3530406 0
48.6494035 193.7825813 0
43.28633474 190.4351304 0
47.90695091 180.2848633 0
53.97736957 194.7980552 0
57.03410807 191.1544736 0
72.56178637 173.6879044 0
82.33583846 172.2961837 0
64.61821986 189.1389297 0
85.170784 170.1240929 0
90.41778816 172.6675715 0
48.68642194 168.6196481 0
65.95106116 163.3189783 0
64.1447605 160.098851 0
66.64166363 165.2559072 0
67.25559388 161.8104386 0
64.05367337 155.0006737 0
74.09960539 150.48128 0
79.66301234 141.1790234 0
85.66471611 141.308646 0
81.65542891 152.0151033 0
182.2684714 51.9032173 0
178.6866616 73.34194473 0
172.5172691 80.07485063 0
175.8078715 74.65651952 0
169.9537492 90.76696215 0
168.9496098 85.27751399 0
158.248693 90.18631661 0
160.5263051 88.17943663 0
165.6377284 95.96540622 0
163.9206793 87.87980591 0
156.3777472 86.56112855 0
152.4152098 86.73525907 0
145.4759429 75.46627173 0
149.8346832 76.28901735 0
147.0444245 83.88242988 0
155.1987788 83.53854531 0
158.314349 65.94093362 0
157.1900693 69.7472029 0
162.0540206 62.41316333 0
162.3649815 65.10602522 0
180.1754339 54.88605714 0
166.5823205 69.04905931 0
191.3815769 53.92248566 0
184.7990285 75.84745351 0
170.3934605 98.10141285 0
170.898641 102.0187112 0
174.5381772 84.94273057 0
178.5289174 70.29007918 0
176.2235113 90.1925775 0
173.2263209 92.08999259 0
180.4773797 85.78792902 0
185.1860996 87.86268189 0
87.36040757 187.7227584 0
91.4746424 185.602787 0
80.7954027 186.3368695 0
88.89281068 181.3115483 0
96.56164953 165.7285065 0
99.44587562 166.8394308 0
90.37295954 177.1592818 0
90.64510791 167.7818848 0
159.1032621 43.74122484 0
167.3440093 48.49662703 0
164.2370211 30.43809326 0
149.219008 27.40594087 0
149.4941859 65.6769445 0
156.5977704 51.67564443 0
150.8784147 74.76274621 0
145.9772882 67.85820546 0
142.3664619 83.25496176 0
147.9422934 77.36663597 0
73.58474439 146.9284094 0
71.05410985 155.0906975 0
67.77767012 158.531643 0
56.22494438 154.9307443 0
47.82814311 166.7169184 0
45.75542412 166.6556173 0
21.20522087 176.4594094 0
19.92142082 169.2361433 0
13.77093143 157.5967053 0
22.31963377 153.6255132 0
56.20768375 199.9186913 0
61.59541568 204.6742696 0
76.7805237 184.6315629 0
89.53490422 187.4183521 0
76.00055667 174.8625521 0
74.05001026 192.8460541 0
82.27146021 190.695555 0
91.077648 188.1307182 0
94.98589289 192.5972517 0
92.37522259 189.2703029 0
97.21276525 170.6839403 0
89.02306163 164.7843571 0
100.4874364 173.1782565 0
104.11207 171.5864036 0
[...]
POINT_DATA 1568
SCALARS GLOBAL_ID int 1
LOOKUP_TABLE default
-1 
-1 
-1 
-1 
-1 
-1 
-1 
-1 
-1 
-1 
-1 
-1 
-1 
-1 
-1 
-1 
-1 
-1 
-1 
-1 
-1 
-1 
-1 
-1 
-1 
-1 
-1 
-1 
-1 
-1 
-1 
-1 
-1 
-1 
-1 
-1 
-1 
-1 
-1 
-1 
-1 
-1 
-1 
-1 
-1 
-1 
-1 
-1 
-1 
-1 
-1 
-1 
-1 
-1 
-1 
-1 
-1 
-1 
-1 
-1 
-1 
-1 
-1 
-1 
-1 
-1 
-1 
-1 
-1 
-1 
-1 
-1 
-1 
-1 
-1 
-1 
-1 
-1 
-1 
-1 
-1 
-1 
-1 
-1 
-1 
-1 
-1 
-1 
-1 
-1 
-1 
-1 
-1 
-1 
-1 
-1 
-1 
-1 
-1 
-1 
-1 
-1 
-1 
-1 
-1 
-1 
-1 
-1 
-1 
-1 
-1 
-1 
-1 
-1 
-1 
-1 
-1 
-1 
-1 
-1 
-1 
-1 
-1 
-1 
-1 
-1 
-1 
-1 
-1 
-1 
-1 
-1 
-1 
-1 
-1 
-1 
-1 
-1 
-1 
-1 
-1 
-1 
-1 
-1 
-1 
-1 
-1 
-1 
-1 
-1 
-1 
-1 
-1 
-1 
-1 
-1 
-1 
-1 
-1 
-1 
-1 
-1 
-1 
-1 
-1 
-1 
-1 
-1 
-1 
-1 
-1 
-1 
-1 
-1 
-1 
-1 
-1 
-1 
-1 
-1 
-1 
-1 
-1 
-1 
-1 
-1 
-1 
-1 
-1 
-1 
-1 
-1 
-1 
-1 
-1 
-1 
-1 
-1 
-1 
-1 
-1 
-1 
-1 
-1 
-1 
-1 
-1 
-1 
-1 
-1 
-1 
-1 
-1 
-1 
-1 
-1 
-1 
-1 
-1 
-1 
-1 
-1 
-1 
-1 
-1 
-1 
-1 
-1 
-1 
-1 
-1 
-1 
-1 
-1 
-1 
-1 
-1 
-1 
-1 
-1 
-1 
-1 
-1 
-1 
-1 
-1 
-1 
-1 
-1 
-1 
-1 
-1 
-1 
-1 
-1 
-1 
-1 
-1 
-1 
-1 
-1 
-1 
-1 
-1 
-1 
-1 
-1 
-1 
-1 
-1 
-1 
-1 
-1 
-1 
-1 
-1 
-1 
-1 
-1 
-1 
-1 
-1 
-1 
-1 
-1 
-1 
-1 
-1 
-1 
-1 
-1 
-1 
-1 
-1 
-1 
-1 
-1 
-1 
-1 
-1 
-1 
-1 
-1 
-1 
-1 
-1 
-1 
-1 
-1 
-1 
-1 
-1 
-1 
-1 
-1 
-1 
-1 
-1 
-1 
-1 
-1 
-1 
-1 
-1 
-1 
-1 
-1 
-1 
-1 
-1 
-1 
-1 
-1 
-1 
-1 
-1 
-1 
-1 
-1 
-1 
-1 
-1 
-1 
-1 
-1 
-1 
-1 
-1 
-1 
-1 
-1 
-1 
-1 
-1 
-1 
-1 
-1 
-1 
-1 
-1 
-1 
-1 
-1 
-1 
-1 
-1 
-1 
-1 
-1 
-1 
-1 
-1 
-1 
-1 
-1 
-1 
-1 
-1 
-1 
-1 
-1 
-1 
-1 
-1 
-1 
-1 
-1 
-1 
-1 
-1 
-1 
-1 
-1 
-1 
-1 
-1 
-1 
-1 
-1 
-1 
-1 
-1 
-1 
-1 
-1 
-1 
-1 
-1 
-1 
-1 
-1 
-1 
-1 
-1 
-1 
-1 
-1 
-1 
-1 
-1 
-1 
-1 
-1 
-1 
-1 
-1 
-1 
-1 
-1 
-1 
-1 
-1 
-1 
-1 
-1 
-1 
-1 
-1 
-1 
-1 
-1 
-1 
-1 
-1 
-1 
-1 
-1 
-1 
-1 
-1 
-1 
-1 
-1 
-1 
-1 
-1 
-1 
-1 
-1 
-1 
-1 
-1 
-1 
-1 
-1 
-1 
-1 
-1 
-1 
-1 
-1 
-1 
-1 
-1 
-1 
-1 
-1 
-1 
-1 
-1 
-1 
-1 
-1 
-1 
-1 
-1 
-1 
-1 
-1 
-1 
-1 
-1 
-1 
-1 
-1 
-1 
-1 
-1 
-1 
-1 
-1 
-1 
-1 
-1 
-1 
-1 
-1 
-1 
-1 
-1 
-1 
-1 
-1 
-1 
-1 
-1 
-1 
-1 
-1 
-1 
-1 
-1 
-1 
-1 
-1 
-1 
-1 
-1 
-1 
-1 
-1 
-1 
-1 
-1 
-1 
-1 
-1 
-1 
-1 
-1 
-1 
-1 
-1 
-1 
-1 
-1 
-1 
-1 
-1 
-1 
-1 
-1 
-1 
-1 
-1 
-1 
-1 
-1 
-1 
-1 
-1 
-1 
-1 
-1 
-1 
-1 
-1 
-1 
-1 
-1 
-1 
-1 
-1 
-1 
-1 
-1 
-1 
-1 
-1 
-1 
-1 
-1 
-1 
-1 
-1 
-1 
-1 
-1 
-1 
-1 
-1 
-1 
-1 
-1 
-1 
-1 
-1 
-1 
-1 
-1 
-1 
-1 
-1 
-1 
-1 
-1 
-1 
-1 
-1 
-1 
-1 
-1 
-1 
-1 
-1 
-1 
-1 
-1 
-1 
-1 
-1 
-1 
-1 
-1 
-1 
-1 
-1 
-1 
-1 
-1 
-1 
-1 
-1 
-1 
-1 
-1 
-1 
-1 
-1 
-1 
-1 
-1 
-1 
-1 
-1 
-1 
-1 
-1 
-1 
-1 
-1 
-1 
-1 
-1 
-1 
-1 
-1 
-1 
-1 
-1 
-1 
-1 
-1 
-1 
-1 
-1 
-1 
-1 
-1 
-1 
-1 
-1 
-1 
-1 
-1 
-1 
-1 
-1 
-1 
-1 
-1 
-1 
-1 
-1 
-1 
-1 
-1 
-1 
-1 
-1 
-1 
-1 
-1 
-1 
-1 
-1 
-1 
-1 
-1 
-1 
-1 
-1 
-1 
-1 
-1 
-1 
-1 
-1 
-1 
-1 
-1 
-1 
-1 
-1 
-1 
-1 
-1 
-1 
-1 
-1 
-1 
-1 
-1 
-1 
-1 
-1 
-1 
-1 
-1 
-1 
-1 
-1 
-1 
-1 
-1 
-1 
-1 
-1 
-1 
-1 
-1 
-1 
-1 
-1 
-1 
-1 
-1 
-1 
-1 
-1 
-1 
-1 
-1 
-1 
-1 
-1 
-1 
-1 
-1 
-1 
-1 
-1 
-1 
-1 
-1 
-1 
-1 
-1 
-1 
-1 
-1 
-1 
-1 
-1 
-1 
-1 
-1 
-1 
-1 
-1 
-1 
-1 
-1 
-1 
-1 
-1 
-1 
-1 
-1 
-1 
-1 
-1 
-1 
-1 
-1 
-1 
-1 
-1 
-1 
-1 
-1 
-1 
-1 
-1 
-1 
-1 
-1 
-1 
-1 
-1 
-1 
-1 
-1 
-1 
-1 
-1 
-1 
-1 
-1 
-1 
-1 
-1 
-1 
-1 
-1 
-1 
-1 
-1 
-1 
-1 
-1 
-1 
-1 
-1 
-1 
-1 
-1 
-1 
-1 
-1 
-1 
-1 
-1 
-1 
-1 
-1 
-1 
-1 
-1 
-1 
-1 
-1 
-1 
-1 
-1 
-1 
-1 
-1 
-1 
-1 
-1 
-1 
-1 
-1 
-1 
-1 
-1 
-1 
-1 
-1 
-1 
-1 
-1 
-1 
-1 
-1 
-1 
-1 
-1 
-1 
-1 
-1 
-1 
-1 
-1 
-1 
-1 
-1 
-1 
-1 
-1 
-1 
-1 
-1 
-1 
-1 
-1 
-1 
-1 
-1 
-1 
-1 
-1 
-1 
-1 
-1 
-1 
-1 
-1 
-1 
-1 
-1 
-1 
-1 
-1 
-1 
-1 
-1 
-1 
-1 
-1 
-1 
-1 
-1 
-1 
-1 
-1 
-1 
-1 
-1 
-1 
-1 
-1 
-1 
-1 
-1 
-1 
-1 
-1 
-1 
-1 
-1 
-1 
-1 
-1 
-1 
-1 
-1 
-1 
-1 
-1 
-1 
-1 
-1 
-1 
-1 
-1 
-1 
-1 
-1 
-1 
-1 
-1 
-1 
-1 
-1 
-1 
-1 
-1 
-1 
-1 
-1 
-1 
-1 
-1 
-1 
-1 
-1 
-1 
-1 
-1 
-1 
-1 
-1 
-1 
-1 
-1 
-1 
-1 
-1 
-1 
-1 
-1 
-1 
-1 
-1 
-1 
-1 
-1 
-1 
-1 
-1 
-1 
-1 
-1 
-1 
-1 
-1 
-1 
-1 
-1 
-1 
-1 
-1 
-1 
-1 
-1 
-1 
-1 
-1 
-1 
-1 
-1 
-1 
-1 
-1 
-1 
-1 
-1 
-1 
-1 
-1 
-1 
-1 
-1 
-1 
-1 
-1 
-1 
-1 
-1 
-1 
-1 
-1 
-1 
-1 
-1 
-1 
-1 
-1 
-1 
-1 
-1 
-1 
-1 
-1 
-1 
-1 
-1 
-1 
-1 
-1 
-1 
-1 
-1 
-1 
-1 
-1 
-1 
-1 
-1 
-1 
-1 
-1 
-1 
-1 
-1 
-1 
-1 
-1 
-1 
-1 
-1 
-1 
-1 
-1 
-1 
-1 
-1 
-1 
-1 
-1 
-1 
-1 
-1 
-1 
-1 
-1 
-1 
-1 
-1 
-1 
-1 
-1 
-1 
-1 
-1 
-1 
-1 
-1 
-1 
-1 
-1 
-1 
-1 
-1 
-1 
-1 
-1 
-1 
-1 
-1 
-1 
-1 
-1 
-1 
-1 
-1 
-1 
-1 
-1 
-1 
-1 
-1 
-1 
-1 
-1 
-1 
-1 
-1 
-1 
-1 
-1 
-1 
-1 
-1 
-1 
-1 
-1 
-1 
-1 
-1 
-1 
-1 
-1 
-1 
-1 
-1 
-1 
-1 
-1 
-1 
-1 
-1 
-1 
-1 
-1 
-1 
-1 
-1 
-1 
-1 
-1 
-1 
-1 
-1 
-1 
-1 
-1 
-1 
-1 
-1 
-1 
-1 
-1 
-1 
-1 
-1 
-1 
-1 
-1 
-1 
-1 
-1 
-1 
-1 
-1 
-1 
-1 
-1 
-1 
-1 
-1 
-1 
-1 
-1 
-1 
-1 
-1 
-1 
-1 
-1 
-1 
-1 
-1 
-1 
-1 
-1 
-1 
-1 
-1 
-1 
-1 
-1 
-1 
-1 
-1 
-1 
-1 
-1 
-1 
-1 
-1 
-1 
-1 
-1 
-1 
-1 
-1 
-1 
-1 
-1 
-1 
-1 
-1 
-1 
-1 
-1 
-1 
-1 
-1 
-1 
-1 
-1 
-1 
-1 
-1 
-1 
-1 
-1 
-1 
-1 
-1 
-1 
-1 
-1 
-1 
-1 
-1 
-1 
-1 
-1 
-1 
-1 
-1 
-1 
-1 
-1 
-1 
-1 
-1 
-1 
-1 
-1 
-1 
-1 
-1 
-1 
-1 
-1 
-1 
-1 
-1 
-1 
-1 
-1 
-1 
-1 
-1 
-1 
-1 
-1 
-1 
-1 
-1 
-1 
-1 
-1 
-1 
-1 
-1 
-1 
-1 
-1 
-1 
-1 
-1 
-1 
-1 
-1 
-1 
-1 
-1 
-1 
-1 
-1 
-1 
-1 
-1 
-1 
-1 
-1 
-1 
-1 
-1 
-1 
-1 
-1 
-1 
-1 
-1 
-1 
-1 
-1 
-1 
-1 
-1 
-1 
-1 
-1 
-1 
-1 
-1 
-1 
-1 
-1 
-1 
-1 
-1 
-1 
-1 
-1 
-1 
-1 
-1 
-1 
-1 
-1 
-1 
-1 
-1 
-1 
-1 
-1 
-1 
-1 
-1 
-1 
-1 
-1 
-1 
-1 
-1 
-1 
-1 
-1 
-1 
-1 
-1 
-1 
-1 
-1 
-1 
-1 
-1 
-1 
-1 
-1 
-1 
-1 
-1 
-1 
-1 
-1 
-1 
-1 
-1 
-1 
-1 
-1 
-1 
-1 
-1 
-1 
-1 
-1 
-1 
-1 
-1 
-1 
-1 
-1 
-1 
-1 
-1 
-1 
-1 
-1 
-1 
-1 
-1 
-1 
-1 
-1 
-1 
-1 
-1 
-1 
-1 
-1 
-1 
-1 
-1 
-1 
-1 
-1 
-1 
-1 
-1 
-1 
-1 
-1 
-1 
-1 
-1 
-1 
-1 
-1 
-1 
-1 
-1 
-1 
-1 
-1 
-1 
-1 
-1 
-1 
-1 
-1 
-1 
-1 
-1 
-1 
-1 
-1 
-1 
-1 
-1 
-1 
-1 
-1 
-1 
-1 
-1 
-1 
-1 
-1 
-1 
-1 
-1 
-1 
-1 
-1 
-1 
-1 
-1 
-1 
-1 
-1 
-1 
-1 
-1 
-1 
-1 
-1 
-1 
-1 
-1 
-1 
-1 
-1 
-1 
-1 
-1 
-1 
-1 
-1 
-1 
-1 
-1 
-1 
-1 
-1 
-1 
-1 
-1 
-1 
-1 
-1 
-1 
-1 
-1 
-1 
-1 
-1 
-1 
-1 
-1 
-1 
-1 
-1 
-1 
-1 
-1 
-1 
-1 
-1 
-1 
-1 
-1 
-1 
-1 
-1 
-1 
-1 
-1 
-1 
-1 
-1 
-1 
-1 
-1 
-1 
-1 
-1 
-1 
-1 
VECTORS G_average double
-1.816214913 -3.114244705 0 
-1.681753521 -3.100425175 0 
-3.812777317 -0.5884390628 0 
-3.810273065 -1.014928753 0 
-4.286374488 -0.9460244802 0 
-4.241351586 -0.6154745116 0 
-4.034492449 -1.008212774 0 
-4.426388773 -1.331655609 0 
-1.353596131 -4.702030007 0 
-1.526057786 -4.643655345 0 
-0.8311215753 -4.168148519 0 
-0.675050837 -4.572828041 0 
-0.6351030647 -4.234224042 0 
-0.6187201078 -4.266416302 0 
-1.369230399 -4.531691695 0 
-1.439069055 -4.227906303 0 
-3.710378342 -1.061329914 0 
-4.12712795 -1.43846383 0 
-4.180660889 -1.710500395 0 
-4.595906378 -1.149251346 0 
-4.61590095 -1.460226475 0 
-4.60457047 -1.665241285 0 
-1.751322251 -3.094821849 0 
-1.702807145 -3.044987653 0 
-0.5849501993 -3.830723992 0 
-1.057484517 -4.207669329 0 
-3.785640346 -0.2584513782 0 
-3.83235994 -0.6172109233 0 
-4.998719565 -1.670534623 0 
-4.722244081 -1.387841791 0 
-4.208031591 -0.1916797489 0 
-4.159155717 -0.9436308444 0 
-4.984900725 -1.544717115 0 
-4.800686173 -1.34435642 0 
-3.668616567 -0.6124617643 0 
-3.526516911 -0.8236788821 0 
-3.460134088 -0.7573403461 0 
-3.702192262 -0.9547333379 0 
-3.764721193 -0.5934307559 0 
-4.264015544 -1.09090036 0 
-1.542466652 -4.688577781 0 
-1.637062404 -5.035060119 0 
-1.256534981 -4.840697758 0 
-0.9909264452 -3.935043355 0 
-0.1877272633 -3.790479614 0 
-0.6218143077 -3.807024334 0 
-1.033680131 -3.794031995 0 
-0.2554673658 -4.257481552 0 
-0.5356491991 -3.442546463 0 
-0.2896947517 -3.443040343 0 
-0.586291172 -3.864815332 0 
-0.7114844198 -3.609738749 0 
-1.645863914 -3.762271632 0 
-1.297373452 -3.880986567 0 
-1.881017295 -3.312334555 0 
-1.633079063 -3.536786977 0 
-1.685734857 -3.37067768 0 
-2.105575341 -3.176799835 0 
-1.820350171 -4.05347349 0 
-1.017287046 -4.571014647 0 
-1.51324699 -4.911556018 0 
-1.707861076 -4.859821615 0 
-3.020075233 -1.791475112 0 
-3.13636223 -1.838301447 0 
-3.015062602 -1.752828629 0 
-3.023761489 -1.788473278 0 
-3.335069339 -1.692449975 0 
-3.123955477 -1.69366556 0 
-1.715215241 -2.984549089 0 
-1.59961827 -3.051989508 0 
-5.051681812 -1.641759461 0 
-4.690503137 -1.53322918 0 
-1.737274177 -4.944714311 0 
-1.553474286 -5.013897809 0 
-1.632876973 -3.046402052 0 
-1.588201943 -3.002869578 0 
-1.02959474 -4.823765942 0 
-1.150096525 -3.426236059 0 
-2.984743947 -1.723069199 0 
-3.088980384 -1.391530721 0 
-3.808789327 -1.39260674 0 
-3.346714719 -1.353883526 0 
-4.184640733 -1.323602164 0 
-3.519618639 -0.8170782178 0 
-5.409515525 -0.5962311586 0 
-5.441027884 -0.5836366692 0 
-4.48315218 -0.1327158265 0 
-4.315262922 0.1405615572 0 
-3.762737864 -0.2032429353 0 
-4.409099314 -0.3743413276 0 
-4.663125025 -1.506141011 0 
-4.901036842 -1.001614618 0 
-5.041328784 -1.186008347 0 
-4.996548308 -0.9285632223 0 
-5.064699239 -0.6124818975 0 
-4.545570609 -0.5738790127 0 
-3.688815022 -1.32435266 0 
-3.404481285 -0.7507914235 0 
-3.45113505 -0.2724756206 0 
-3.767112829 -0.8732682791 0 
-3.455085215 -0.5893132525 0 
-3.541677253 -0.2803971856 0 
-3.610954609 -0.230951051 0 
-3.631009909 0.1536592623 0 
-4.200155287 0.3777657399 0 
-3.999675589 -0.00558438055 0 
-3.833287447 -0.08339793449 0 
-4.119654819 0.1319997602 0 
-1.41193856 -4.410115417 0 
-1.44034807 -4.955525038 0 
-0.5918990606 -4.59843189 0 
-1.445166309 -4.819936536 0 
-0.6473678057 -4.964549476 0 
-0.6187671291 -3.659767094 0 
-0.1585313773 -4.15671802 0 
-0.4510950775 -3.899533746 0 
-0.3991915476 -4.58269818 0 
-0.536254763 -4.334761684 0 
-0.609593221 -5.449877857 0 
-0.5869901874 -5.430376323 0 
-0.8791569422 -4.989897813 0 
-0.7919184906 -5.426159863 0 
0.1158383116 -4.278672462 0 
-0.2194108895 -3.751736936 0 
-0.2334595359 -3.549701174 0 
-0.3013456489 -3.530546496 0 
-0.204781626 -3.946555115 0 
-0.7400977093 -3.394684563 0 
-0.7299671264 -3.531517543 0 
-0.714830231 -3.500955849 0 
-1.786446381 -3.140904969 0 
-2.035859976 -3.351394682 0 
-1.750069109 -3.007359278 0 
-1.776490105 -3.205292745 0 
-1.856962218 -4.59592795 0 
-1.910030322 -4.211148919 0 
-1.74264568 -4.597292548 0 
-1.77208605 -5.00072798 0 
-1.714123733 -4.973328392 0 
-1.847179226 -4.58864853 0 
-1.588084059 -4.711096452 0 
-1.8719854 -4.726488392 0 
-3.39472372 -1.652898311 0 
-4.285278075 -1.74528902 0 
-3.285651061 -1.616726472 0 
-3.356958093 -1.941870251 0 
-3.057327922 -1.863149147 0 
-3.445657119 -1.798747654 0 
-3.040052191 -1.757210003 0 
-3.019491964 -1.847286542 0 
-3.790688921 -1.822315479 0 
-3.365661505 -1.787638068 0 
-4.569354079 -2.180677484 0 
-4.608256843 -1.983967415 0 
-4.76752211 -1.526991213 0 
-4.96811374 -1.812504149 0 
-4.964749768 -1.757845827 0 
-4.732736446 -1.60058364 0 
-4.547696126 -1.840333139 0 
-4.879102302 -1.690108906 0 
-2.986577334 -1.748567644 0 
-3.069275529 -1.683823516 0 
-2.991094056 -2.655440395 0 
-3.743526503 -2.215142293 0 
-3.020602731 -1.661669207 0 
-3.078395876 -1.758731099 0 
-1.740813998 -3.059752899 0 
-1.675011887 -3.072069311 0 
-1.758880301 -3.014791741 0 
-1.667827022 -2.861671491 0 
-2.306584611 -3.49080979 0 
-2.248278599 -2.996931137 0 
-1.574170787 -2.979073943 0 
-1.792256621 -3.024285738 0 
-5.44738589 -0.9802171006 0 
-5.45390539 -0.6607300647 0 
-5.025693488 -1.670992578 0 
-4.998544291 -1.742455297 0 
-4.786138609 -1.882533098 0 
-5.02828117 -1.858668456 0 
-4.788108402 -2.23549579 0 
-4.182847929 -1.840640697 0 
-1.902627953 -5.01450761 0 
-2.007628525 -4.942831633 0 
-1.48511089 -4.617978308 0 
-1.351099833 -4.629657075 0 
-0.9918025858 -5.071631934 0 
-1.314068994 -5.010638423 0 
-0.1363664249 -3.119772665 0 
-0.1930246669 -3.796935469 0 
-0.9406685438 -3.344822406 0 
-0.7960745025 -3.549348417 0 
-1.75503046 -3.272313247 0 
-1.469671303 -3.016403428 0 
-1.679694619 -2.983836255 0 
-1.706414457 -3.166575476 0 
-1.932794871 -3.752617835 0 
-1.365037489 -3.340423546 0 
-2.544186091 -3.77759821 0 
-2.532485364 -4.268146238 0 
-2.915585519 -4.656219135 0 
-2.599127796 -4.448661094 0 
-4.494708222 -2.812070277 0 
-4.507703694 -2.634514715 0 
-4.193855512 -3.024164147 0 
-3.448435594 -2.225233415 0 
-3.025502605 -1.555810639 0 
-2.981349573 -1.672299354 0 
-3.04805131 -1.413668501 0 
-3.272790675 -1.778365532 0 
-3.977567433 -1.733286502 0 
-3.286813412 -0.9880437449 0 
-5.390112624 -0.5373571109 0 
-5.439425782 -0.4972320409 0 
-5.601472344 -0.6597262436 0 
-5.44078931 -0.5659147079 0 
-4.935357563 -1.036862025 0 
-5.293455992 -1.00067162 0 
-2.625721177 -3.408705949 0 
-1.792905509 -3.847660534 0 
-0.03929927046 -4.35213543 0 
-0.07668757879 -4.691457661 0 
-3.032907997 -4.630427887 0 
-2.826241001 -4.106666152 0 
-4.102109034 -0.2744093698 0 
-4.848461292 -0.6570789096 0 
-3.456522799 -0.2751126901 0 
-3.81919922 -0.6968152546 0 
-3.4190087 -0.2417207901 0 
-3.439945014 -0.4088259449 0 
-3.861409531 -0.5550656131 0 
-3.891986464 0.09502194663 0 
-4.239803346 -0.2145500459 0 
-3.415886342 -0.9384232827 0 
-4.931209938 -1.503286874 0 
-4.91660121 -1.430219769 0 
-5.002195703 -1.712367674 0 
-5.030937142 -1.615059163 0 
-5.053646105 -1.46529525 0 
-4.733256081 -0.5831238163 0 
-4.720096177 -1.62966868 0 
-4.831700821 -1.603236503 0 
-4.636386914 -1.48425868 0 
-5.219586509 -1.018149816 0 
-4.743414979 -1.040557142 0 
-5.308060208 -0.1943566592 0 
-4.233389387 0.2499122421 0 
-3.839703067 0.5178752175 0 
-3.673360384 -0.669777291 0 
-3.436719324 -0.4379389415 0 
-3.729915057 -0.1900936399 0 
-3.459729249 -0.8690326338 0 
-3.530767238 -0.2222115741 0 
-3.30913818 -0.1703642338 0 
-4.320353786 0.4148292085 0 
-4.270599022 0.4680280915 0 
-1.606268691 -5.043064034 0 
-1.499300194 -4.64761001 0 
-1.141045373 -5.359139921 0 
-1.564721516 -4.944237917 0 
0.05497325332 -3.6796072 0 
-0.2488244242 -3.576937151 0 
-0.9156396211 -5.00265225 0 
-0.6106439842 -3.52406962 0 
-0.223815661 -3.784968556 0 
-0.1322186816 -3.56897378 0 
-0.8551943796 -4.339131735 0 
-0.6615089987 -3.779018607 0 
-1.001443742 -4.097114262 0 
-0.3213573777 -5.065902938 0 
-0.6025033043 -5.423706272 0 
-0.554343019 -5.618837557 0 
-0.5632372667 -5.431615801 0 
-0.1496262645 -5.356623632 0 
-1.024272343 -5.422480807 0 
-0.5010339158 -5.380324732 0 
-1.415537574 -4.601176732 0 
-1.543624735 -4.987533978 0 
-1.470661408 -4.256924518 0 
-1.020043496 -4.656792826 0 
-0.3495253245 -3.583556505 0 
-0.717050016 -3.529795778 0 
0.2249592816 -4.104656368 0 
-0.1505961371 -4.284388716 0 
0.4073230519 -4.202477732 0 
0.4671563256 -4.154300172 0 
0.6308939126 -4.16004184 0 
-0.3355764358 -4.106581664 0 
-0.1489204772 -3.35807217 0 
0.1210101123 -3.400831692 0 
-0.650140611 -3.009756305 0 
-0.08549812086 -3.479271975 0 
0.1713630317 -4.658538908 0 
-0.893939866 -3.465782482 0 
-0.8539905762 -3.696463536 0 
-2.040421961 -3.852646624 0 
-1.805675445 -3.005139776 0 
-0.9573470561 -3.471626498 0 
-1.621407058 -3.066141204 0 
-1.863919974 -3.009419092 0 
-1.827308029 -4.975227245 0 
-1.68422761 -4.908728893 0 
-1.689225229 -4.912110182 0 
-1.729569753 -4.873093739 0 
-1.638652611 -4.928962939 0 
-1.806363892 -4.959925364 0 
-2.220521139 -4.423666998 0 
-2.651269679 -5.011636587 0 
-2.623144005 -5.0182742 0 
-3.040636178 -4.262759311 0 
-4.199720516 -0.5925518969 0 
-3.545212514 -1.711449328 0 
-3.101173072 -2.163756437 0 
-3.638260931 -1.92226417 0 
-3.133193983 -2.002489042 0 
-3.090520581 -1.490230375 0 
-4.65260316 -2.924529022 0 
-4.869559539 -2.604114239 0 
-3.391553899 -2.8769318 0 
-4.35620695 -1.841850561 0 
-4.781586459 -3.206423579 0 
-4.690319737 -3.031019005 0 
-4.640194688 -2.437216033 0 
-4.474982327 -2.497830741 0 
-4.61260206 -2.803998452 0 
-4.386473717 -3.417617867 0 
-4.85989844 -1.662367913 0 
-4.628076912 -1.467942992 0 
-4.908617014 -1.706073324 0 
-4.896663404 -1.666349244 0 
-4.165323138 -0.9109239801 0 
-4.776416807 -1.789616405 0 
-3.462393853 -0.7332082719 0 
-3.358965551 -1.520401529 0 
-2.706432208 -2.947759396 0 
-2.640751482 -3.267200535 0 
-3.049267621 -1.768199319 0 
-3.759210367 -1.609346322 0 
-2.778824135 -1.592573218 0 
-2.796812204 -1.899974381 0 
-3.0304371 -1.668711749 0 
-3.033346146 -1.689967061 0 
-1.75971952 -3.019225441 0 
-1.787817134 -3.345065271 0 
-1.43469279 -3.105001426 0 
-1.441083327 -3.02782355 0 
-2.996948633 -3.37466763 0 
-2.989885227 -3.096185933 0 
-1.477242277 -2.801273623 0 
-2.155812407 -3.413871154 0 
-5.02926928 -1.399671617 0 
-4.885006661 -1.710005299 0 
-5.31179533 -0.6673413114 0 
-6.062640819 -1.021964261 0 
-4.960262493 -2.084773087 0 
-4.996292737 -1.539832578 0 
-4.424885321 -2.223138223 0 
-4.997296447 -2.222931613 0 
-4.911245989 -2.656508968 0 
-4.587362045 -2.611653004 0 
-2.262345668 -4.680711439 0 
-1.650637715 -4.497100489 0 
-1.507989004 -4.90000789 0 
-1.693051929 -5.030220266 0 
-1.709017496 -4.779977712 0 
-1.684462806 -4.690760754 0 
-0.6227224353 -5.410865713 0 
-0.5660767062 -5.41095307 0 
-0.5906522512 -5.807842492 0 
-0.6651818691 -5.897950415 0 
-0.5182517833 -3.725579606 0 
-0.2204959762 -3.13531455 0 
-1.497796338 -3.327154795 0 
-1.825133328 -3.037185439 0 
-2.045488948 -3.481318138 0 
-1.045240199 -3.133511179 0 
-1.441325396 -3.003734177 0 
-1.825929781 -3.012391477 0 
-1.917390342 -2.279619785 0 
-2.119424292 -2.748592261 0 
-2.586197994 -2.790100782 0 
-2.118318525 -4.168265766 0 
-3.006138425 -2.559730304 0 
-3.366916184 -2.618531162 0 
-2.785214163 -5.048506671 0 
-3.072204107 -4.689015041 0 
-4.878332034 -2.865113183 0 
-4.240163703 -3.367651641 0 
-3.327963905 -3.069551993 0 
-3.845899107 -2.780430368 0 
-3.310820101 -2.013711652 0 
-2.641062996 -2.486233774 0 
-2.090936031 -3.047131932 0 
-2.402647072 -2.955283413 0 
-2.711557064 -1.70189796 0 
-3.01700918 -1.856512637 0 
-3.040920882 -1.490218356 0 
-4.154955913 -1.882127768 0 
-4.254351545 -1.882947264 0 
-3.516051357 -0.7178016947 0 
-3.690750413 0.2312491147 0 
-4.154150878 0.5662687238 0 
-5.432593598 -0.662058427 0 
-5.390518164 -0.6162902628 0 
-5.43808504 -0.2317434104 0 
-5.394700894 -0.5585631107 0 
-5.829156319 -0.2555369074 0 
-5.433431846 -0.5181103797 0 
-5.624653854 -0.4643001485 0 
-5.442207876 -0.6528322316 0 
-4.311949887 -0.9010554916 0 
-5.017776161 -0.5754692149 0 
-2.161539268 -2.593431722 0 
-1.579155647 -3.508485528 0 
-2.766766466 -4.743893566 0 
-3.028800934 -3.816151986 0 
-2.960161692 -4.491617997 0 
-2.545010813 -4.618089692 0 
-0.6565514616 -5.405170134 0 
-0.6225305114 -5.168461375 0 
0.2638491632 -3.982531529 0 
0.4268362965 -4.566000053 0 
-0.5890588731 -5.364615517 0 
-0.6461083711 -5.446666682 0 
-3.047846122 -4.671821279 0 
-3.336825085 -4.645006628 0 
-4.993546302 -2.622918019 0 
-4.971970316 -2.783389195 0 
-4.324897443 0.3223140093 0 
-4.793603329 0.2100059659 0 
-5.436022456 -0.6231450291 0 
-5.403676642 -0.4778532405 0 
-3.444457332 -0.06509791136 0 
-4.013652384 -0.9714732291 0 
-3.804393067 -0.1872615993 0 
-3.617501079 0.03762109472 0 
-3.857096395 -0.02733363523 0 
-3.415377387 -0.5724448548 0 
-4.576633467 0.5857462544 0 
-4.736116763 -1.136588994 0 
-4.965632174 -1.869863166 0 
-4.584617234 -1.813186293 0 
-5.041736012 -1.836292296 0 
-5.240947093 -1.116917211 0 
-5.171746547 -1.860058876 0 
-5.310634788 -1.450147817 0 
-4.781547141 -1.891921096 0 
-4.639324061 -1.391347458 0 
-4.310382597 -1.750898397 0 
-4.828877295 -0.4238003952 0 
-5.23477155 -0.1711078054 0 
-4.649159197 0.1076721264 0 
-5.434549048 -0.5753685822 0 
-5.486182902 -0.5528618587 0 
-4.131900884 0.6165633929 0 
-4.388518889 0.2627432013 0 
-4.1833037 0.3685118673 0 
-3.416225253 0.09105442377 0 
-2.576001749 -0.7018785201 0 
-3.189958966 -0.5743982629 0 
-2.966390797 0.5691902139 0 
-2.516789744 0.4229986901 0 
-3.030028096 -1.183749515 0 
-3.502537537 -0.8249148893 0 
-3.12416024 0.8324502517 0 
-3.066937645 0.2237666924 0 
-3.414349535 -0.259684805 0 
-3.410856165 -0.6347815379 0 