# vtk DataFile Version 3.0
MOAB 5.5.0
ASCII
DATASET UNSTRUCTURED_GRID
POINTS 621 double
131.625 0 0
190 0 0
141.4813378 0 0
148.979911 0 0
156.4518777 0 0
163.8934104 0 0
171.294642 0 0
179.6924542 0 0
190 13.35 0
229.3618102 13.35 0
199.0770536 13.35 0
206.3750477 13.35 0
213.1616632 13.35 0
219.6449024 13.35 0
210.4354116 92.20629078 0
228.1340073 27.2017872 0
225.9695052 41.50717065 0
223.3335311 53.9184235 0
220.0949944 65.90338342 0
215.1878072 80.49391355 0
172.5163769 130.1253254 0
204.1958845 98.44581789 0
199.832762 102.8089404 0
195.4015567 107.2401457 0
191.0325416 111.6091608 0
187.3763559 115.2653464 0
184.0742476 118.5674548 0
180.5296691 122.1120332 0
176.6961596 125.9455428 0
148.4747464 106.0836948 0
168.1864903 125.7954388 0
163.8799157 121.4888641 0
159.374237 116.9831854 0
154.4205271 112.0294756 0
106.0836948 148.4747464 0
142.059457 112.4989842 0
136.2147653 118.343676 0
130.1647892 124.393652 0
124.3928566 130.1655846 0
118.3428508 136.2155905 0
112.498261 142.0601803 0
130.1253254 172.5163769 0
112.029503 154.4205545 0
116.9832136 159.3742651 0
121.4888827 163.8799342 0
125.7954556 168.1865072 0
92.20629078 210.4354116 0
125.9463385 176.6953639 0
122.1134525 180.5282498 0
118.5693467 184.0723556 0
115.2675762 187.3741261 0
111.6126601 191.0290422 0
107.2443701 195.3973322 0
102.8111233 199.8305791 0
98.44573378 204.1959686 0
13.35 229.3618102 0
80.49609445 215.1869914 0
65.90766867 220.0937112 0
53.92303467 223.3324178 0
41.50786441 225.9693778 0
27.19915164 228.1343215 0
13.35 190 0
13.35 219.6448575 0
13.35 213.1616248 0
13.35 206.3750314 0
13.35 199.077054 0
0 190 0
0 131.625 0
0 179.6923316 0
0 171.2944727 0
0 163.8934396 0
0 156.4519556 0
0 148.9799814 0
0 141.4813813 0
13.16100441 130.9653717 0
26.5707696 128.9152234 0
37.69403675 126.1122525 0
46.17240282 123.2609015 0
57.92698961 118.1930814 0
67.32312661 113.1049833 0
74.66164235 108.4010138 0
83.23305165 101.9676406 0
89.03161822 96.94592091 0
96.98092261 88.99349007 0
101.9923126 83.20281728 0
108.4259963 74.62535726 0
113.1289625 67.28282448 0
118.2268283 57.85808228 0
123.2814186 46.11759382 0
126.1324216 37.62649124 0
128.9371182 26.46431911 0
130.9747783 13.06706115 0
102.8741932 182.3877934 0
101.72126 179.6090759 0
99.02504071 178.4635263 0
96.19579102 179.5905802 0
95.0242977 182.4164365 0
96.29104439 185.2756767 0
99.10556875 186.3096771 0
101.6976693 185.1898469 0
186.3127934 98.94919318 0
185.1600731 96.17068818 0
182.2490568 95.0266459 0
179.4807116 96.31205451 0
178.469916 99.18554408 0
179.7283288 101.8358649 0
182.5665713 102.8701195 0
185.3096481 101.5699545 0
166.6401678 79.27656761 0
165.5491246 76.56099879 0
162.7519573 75.35174003 0
159.9170118 76.52412362 0
158.7926801 79.13615757 0
159.8037791 81.90895068 0
162.6445826 83.20093287 0
165.4912102 82.0513133 0
83.20156761 162.7151678 0
81.9631748 159.8537404 0
79.20816915 158.7907638 0
76.58423884 159.8591232 0
75.35187663 162.6659161 0
76.50532777 165.49471 0
79.20941755 166.6395933 0
82.00484094 165.5368959 0
50.50174628 201.2988556 0
48.89118025 198.9407156 0
45.96843528 198.3213385 0
43.49326466 199.8867361 0
42.76099135 202.4421894 0
44.09649816 205.1389595 0
47.30490923 206.0562931 0
50.01486305 204.247361 0
44.54054334 175.4780488 0
42.79358936 173.0308417 0
40.07127574 172.4893188 0
37.49085944 174.1242017 0
36.90154322 177.2853572 0
38.7851049 179.7781041 0
41.69464901 180.1620535 0
43.96647951 178.5611916 0
203.0647213 42.85294127 0
200.4435472 43.15823273 0
198.5079744 45.29578116 0
198.6109662 48.30671585 0
200.6856796 50.30601893 0
203.6115995 50.33265023 0
205.8590918 48.04959207 0
205.5674517 44.69166769 0
177.2439146 36.89173833 0
174.0942182 37.51186117 0
172.4828075 40.11166617 0
173.0612565 42.84156755 0
175.558918 44.55831715 0
178.6271012 43.92087599 0
180.1754118 41.64120739 0
179.7537526 38.74263366 0
182.6417856 7.451778701 0
194.8242213 21.02701765 0
202.0828626 91.69507942 0
139.4211823 101.8998783 0
103.8167168 156.5415898 0
82.8481387 202.5456128 0
7.389072039 183.0940667 0
104.8417809 179.7897019 0
188.4093326 96.5445635 0
168.2818317 76.33605113 0
84.74006763 159.9168633 0
51.90754015 199.0238517 0
45.61998866 172.3682738 0
201.949984 39.86993172 0
175.4906605 34.51813707 0
142.9415375 8.717705732 0
154.2951941 7.941425161 0
164.3049213 6.448058063 0
174.3568314 7.561198244 0
202.8260007 20.52792286 0
210.6551338 20.12541882 0
219.3819025 19.10949911 0
217.5030632 36.09000217 0
215.1710952 46.34302321 0
211.6826629 57.37910087 0
208.2550306 69.59707717 0
197.8921359 96.51281871 0
193.5941926 101.1028485 0
190.0540801 105.8212118 0
185.8026985 109.4499905 0
182.5090693 113.6247523 0
178.7987563 116.9526674 0
174.4031187 120.7505027 0
169.1266052 119.4208454 0
166.0862375 114.8014278 0
161.7645162 109.0626939 0
156.2845982 102.697508 0
131.7001782 110.2313037 0
127.6792453 117.3938028 0
123.0825306 122.0429865 0
115.9590961 126.2710566 0
110.1294366 133.4532372 0
109.9146873 161.9483877 0
115.4509668 166.123066 0
119.8497959 168.9865222 0
121.020659 174.2290957 0
116.9366314 178.4589769 0
113.4202178 182.4117281 0
110.0733591 186.127927 0
106.2574871 189.8080892 0
101.3306888 193.3787792 0
96.71035956 198.0728576 0
92.06233627 202.2824132 0
69.00477636 206.5470956 0
56.65742246 210.8318078 0
45.33410052 213.8565558 0
33.31102395 216.0344294 0
20.79628117 217.7871891 0
18.70047296 209.774358 0
19.70026009 203.1545544 0
20.26412293 195.2906572 0
8.143486378 175.2367399 0
8.204454719 166.3940932 0
6.622094352 159.253139 0
6.792792362 141.2593488 0
19.43229914 143.2763286 0
33.87749682 138.8480505 0
45.40439285 134.4703001 0
56.37444141 129.9371438 0
67.39281092 124.8338374 0
76.97352104 118.7603832 0
84.87121667 111.9898253 0
92.05334985 105.7461163 0
98.99022832 99.25863182 0
105.7009482 92.42004682 0
112.4411179 84.96176235 0
118.8994172 76.26324977 0
124.6904546 66.76223022 0
130.027983 56.14251351 0
134.4974513 45.28177861 0
138.1634886 34.14554564 0
140.8398688 21.84927815 0
101.6648055 176.3511322 0
97.65084053 176.0630684 0
93.0174228 180.1223768 0
92.76500835 183.4374197 0
95.49860917 188.3256379 0
102.0498802 188.1934376 0
105.2102039 184.7036579 0
185.7534028 93.40022521 0
179.5986754 93.41061722 0
177.0981685 95.89823916 0
176.4091663 102.6937599 0
179.7128552 105.1124271 0
185.8846776 104.4914684 0
188.6229348 101.012135 0
165.9782195 73.69786164 0
159.6897439 73.0501242 0
156.7698865 75.50181762 0
156.7613795 82.37164117 0
159.2640736 84.81555254 0
165.3065618 84.80938421 0
167.8768754 82.475692 0
82.24501562 157.4689191 0
76.19954369 157.4276936 0
73.58783662 159.7054859 0
73.47347249 165.7612746 0
75.93494859 168.1885546 0
81.8633906 168.3503731 0
84.42592114 166.1898048 0
49.22990412 196.4853726 0
43.0217967 196.8541017 0
40.83923616 199.2302995 0
40.64538252 205.4480946 0
45.87716729 208.3568571 0
49.70809812 208.2407762 0
53.00635309 202.4655746 0
42.83249947 170.3425876 0
37.30852702 171.2557683 0
34.58120956 175.7776758 0
36.56361754 180.8581122 0
39.99703617 182.5597029 0
44.12947026 181.7961407 0
46.62361118 178.7166997 0
198.3638445 41.36053507 0
195.7104193 47.06914792 0
196.88911 50.31217874 0
201.662029 52.85268812 0
208.2693491 50.3025227 0
208.6350437 45.11003531 0
206.1553116 41.11233336 0
170.3438902 37.84001993 0
169.8687222 41.22915792 0
173.067853 46.14326735 0
176.5539502 47.00391972 0
181.6779946 43.8904294 0
182.5083714 40.7018258 0
180.5679802 35.83697169 0
179.0587747 16.22124407 0
186.380276 22.44046716 0
215.3570969 27.2901561 0
149.3093018 94.60034891 0
97.24138043 149.8627743 0
15.57428533 180.5832386 0
48.22882135 175.1666612 0
178.4072828 33.64158742 0
152.2986567 17.9299538 0
199.2062164 28.23647856 0
206.8918058 27.16168316 0
201.9809431 61.13508272 0
202.8098473 82.01720223 0
195.0809236 89.29968265 0
192.5697089 95.66703632 0
180.8284634 109.1210279 0
178.204921 112.3817539 0
173.1034677 114.2648383 0
169.3248358 107.6204618 0
127.5643171 99.343693 0
117.1712699 111.8594659 0
102.6080839 123.6295551 0
101.2439402 138.8939055 0
102.3013015 165.1410536 0
109.036583 169.9966702 0
115.5510764 172.4654545 0
111.0604253 176.9689961 0
108.7107711 181.4088842 0
95.46359444 192.5573875 0
90.07825355 196.1391278 0
73.1181804 195.3726025 0
38.66904947 209.5636353 0
26.25647401 208.3906214 0
21.78297733 186.9349504 0
26.26712973 200.0382974 0
17.89860259 170.4657259 0
8.255281784 151.2508634 0
30.90095424 153.4446112 0
43.55094376 146.8864674 0
55.01998029 141.7697735 0
66.5256188 137.0310128 0
79.3504484 131.7757113 0
88.29014563 122.1360481 0
93.9951276 114.6132952 0
107.9626806 101.8680524 0
115.7793104 96.24874396 0
123.8349542 87.07708054 0
137.0207308 66.13507514 0
142.5242277 54.7553889 0
146.8767708 42.96036498 0
99.40821961 173.2205757 0
94.04009456 176.5117906 0
92.92896444 186.3672422 0
89.61453741 181.2341416 0
98.68966828 189.7529839 0
182.7417087 91.32790145 0
189.6354549 91.910191 0
176.4140666 92.30072685 0
174.9779221 98.90553635 0
182.9590532 106.2090067 0
169.4551186 72.84071134 0
163.0115804 71.34710757 0
155.8168712 70.76877232 0
154.4796728 79.08517203 0
155.6881817 86.20192614 0
162.1603625 86.68220878 0
85.44718373 156.7622166 0
79.10864616 155.6255505 0
72.67001663 156.340068 0
71.41613593 162.8055686 0
78.82173806 170.0664132 0
72.31919655 169.3261561 0
45.92563766 194.6821978 0
53.20251457 195.2814135 0
38.8814224 201.9748257 0
39.65529652 195.7449171 0
42.92443959 208.4728205 0
53.0651845 206.0727312 0
46.12268849 168.8036044 0
39.62272006 168.9899729 0
33.82825578 178.8141677 0
33.73401888 172.5111904 0
48.21001662 182.4299512 0
198.6988625 37.40066719 0
195.2952836 43.26334337 0
198.5710652 53.28229355 0
193.168077 49.59792299 0
204.6608966 54.62875821 0
171.6443479 33.57578964 0
169.8492432 44.5870488 0
166.8114554 39.40795012 0
173.8492678 49.96525144 0
180.1204518 47.02615132 0
182.5396339 37.84620521 0
184.9784853 43.16273635 0
169.0204915 15.07930953 0
191.466187 28.41798473 0
178.4859625 25.70985044 0
95.38256179 159.2764557 0
106.1974249 175.5431805 0
[...]
CELL_DATA 1100
SCALARS DD_DISTANCE_AVE double 1
LOOKUP_TABLE default
0.3873135775 
0.2968138857 
0.2702093301 
0.2380463017 
0.2267366572 
0.2631336999 
0.2455677008 
0.3191044536 
0.3137577318 
0.2362618443 
0.2662438864 
0.2267041133 
0.3380847746 
0.3484689828 
0.3282771375 
0.2606175192 
0.2922207525 
0.2780751709 
0.2127074852 
0.1965973433 
0.2746378583 
0.2005295525 
0.3199663873 
0.2725415824 
0.2637521934 
0.238012747 
0.2759038313 
0.1876939466 
0.2013869425 
0.2771513675 
0.2120741746 
0.2413536241 
0.3434930091 
0.346575969 
0.1691177588 
0.2130257463 
0.3629830414 
0.2160209494 
0.287229632 
0.3009672991 
0.2096691696 
0.261990778 
0.275191244 
0.1743306882 
0.1974753848 
0.1450612247 
0.1461399068 
0.3254805935 
0.3132102021 
0.3077911096 
0.2225411125 
0.2404069421 
0.3058264409 
0.3373527171 
0.2265848912 
0.2941994459 
0.2516072987 
0.2799751623 
0.2959829708 
0.2001328929 
0.1978601113 
0.1897833228 
0.2573699208 
0.2431388523 
0.2326094348 
0.1827111663 
0.2704982848 
0.3625580414 
0.1926763659 
0.3124187799 
0.2386680262 
0.3250777892 
0.2488211948 
0.2220357215 
0.21580748 
0.2896450707 
0.2434005185 
0.2881287333 
0.3386163608 
0.3609962162 
0.3490613975 
0.2923898245 
0.275438936 
0.2225706618 
0.2353531115 
0.25298144 
0.2685349378 
0.2690431867 
0.2743379136 
0.2445868757 
0.3163500109 
0.2516925148 
0.1896144531 
0.1975914319 
0.3584736176 
0.2501012405 
0.3482340191 
0.2803980324 
0.1998053151 
0.2852907811 
0.1952572858 
0.2835431465 
0.2729553245 
0.2857533292 
0.2636949143 
0.1916180385 
0.2912104803 
0.2818006867 
0.3319525906 
0.2079616453 
0.2995686569 
0.3422445024 
0.3089769336 
0.30398821 
0.3097250761 
0.2797830205 
0.2243926062 
0.1594187176 
0.2738095337 
0.281807334 
0.1787708321 
0.2496849941 
0.2553388761 
0.2002782685 
0.3772797143 
0.2662006603 
0.365762877 
0.229660595 
0.3089766529 
0.2805277311 
0.3254777258 
0.2098643849 
0.2945275959 
0.3035872674 
0.3324546564 
0.2888300766 
0.3822872455 
0.3863392829 
0.1985916348 
0.2432004613 
0.224904327 
0.277625512 
0.203938326 
0.2647755367 
0.3467714641 
0.3691948422 
0.2773415721 
0.3338097185 
0.2435605359 
0.1308639413 
0.1703256515 
0.2784285621 
0.2843712807 
0.2945046435 
0.2754813337 
0.2423333551 
0.268066171 
0.2496754058 
0.3293461551 
0.3216053333 
0.2912320282 
0.3197877951 
0.2886954128 
0.2202112275 
0.1425418874 
0.1813172533 
0.2030651559 
0.3495743287 
0.1516014299 
0.3194757486 
0.2195303406 
0.3586606493 
0.2653408956 
0.2501062254 
0.3167916102 
0.2990422234 
0.2444639457 
0.3897803253 
0.2340832185 
0.1965271396 
0.2608941673 
0.165316068 
0.2131869703 
0.3220080821 
0.2297431267 
0.2862226777 
0.3271742431 
0.3147557152 
0.3624893964 
0.2544035969 
0.2784000141 
0.264446897 
0.3248470771 
0.2680736459 
0.3412765892 
0.2945965617 
0.2961092038 
0.2632759543 
0.2607458784 
0.2808013452 
0.2421131933 
0.2417923706 
0.2670257816 
0.2265568384 
0.2319324928 
0.243766151 
0.2656971106 
0.2638864742 
0.2813540081 
0.2115157497 
0.3819885763 
0.3092181936 
0.2279021982 
0.3703330286 
0.1634558011 
0.2936631509 
0.1905117183 
0.2632946877 
0.3166320536 
0.2840400902 
0.3213798024 
0.3140811613 
0.3344829267 
0.3063646545 
0.1686344626 
0.2700305695 
0.2120087425 
0.3037893883 
0.2854222752 
0.2578993096 
0.3940808612 
0.246740022 
0.2632851775 
0.3340073071 
0.3664663975 
0.3190700092 
0.3292155483 
0.3204092297 
0.2971711268 
0.3347435042 
0.2684005581 
0.1849746557 
0.2630123524 
0.2305475046 
0.1876141187 
0.2163796798 
0.2536281773 
0.3063872233 
0.4936717935 
0.5579007913 
0.2885675124 
0.3210375118 
0.2425746399 
0.2679944902 
0.1760807243 
0.2201028261 
0.244552292 
0.3648360095 
0.2772051508 
0.2511853889 
0.3363838053 
0.3699812573 
0.264925637 
0.2196857567 
0.2937828212 
0.2670833865 
0.2815058628 
0.2541307625 
0.2557666345 
0.1913143147 
0.3047078787 
0.2127107952 
0.2871134118 
0.3547000468 
0.2241799015 
0.3372751389 
0.2587993953 
0.3477642522 
0.2574758667 
0.3629565737 
0.2904979705 
0.2717612392 
0.2377295433 
0.28010538 
0.2614746613 
0.2847526889 
0.2341350642 
0.2220875238 
0.2319544654 
0.3462481424 
0.3003797125 
0.1620542628 
0.2355266418 
0.2969155609 
0.3854659507 
0.3625982892 
0.2903207021 
0.3019089047 
0.29957495 
0.3382298578 
0.258086242 
0.2224862279 
0.2227574864 
0.2292928991 
0.1610819824 
0.2387738885 
0.2475058786 
0.2930364482 
0.4247691903 
0.3226298405 
0.2879402476 
0.2745277713 
0.2137641733 
0.2679001334 
0.1404304639 
0.2683567138 
0.2119265507 
0.2839559535 
0.3164753734 
0.2850300104 
0.3005370649 
0.2684063761 
0.3217412852 
0.3148337478 
0.2665462472 
0.2449988972 
0.1821081068 
0.2440465883 
0.2467952571 
0.2984123 
0.3443393313 
0.2794840448 
0.1406057945 
0.2665108746 
0.3227755265 
0.238440946 
0.2651009583 
0.2610594271 
0.3038105853 
0.3727687485 
0.2790861081 
0.18901189 
0.2543493177 
0.3131310273 
0.2445237886 
0.2969683961 
0.3198003781 
0.280683756 
0.3654251158 
0.3103605466 
0.3315207669 
0.3171920628 
0.3086602351 
0.2458277806 
0.2995679621 
0.2571874428 
0.3842966176 
0.2651763815 
0.3601626271 
0.2950162713 
0.2997096797 
0.3360421704 
0.3113132605 
0.3586135694 
0.3684225169 
0.3289315345 
0.247263549 
0.3546779677 
0.2165020007 
0.2687115877 
0.2728282096 
0.3265803441 
0.2690243596 
0.3337987642 
0.1580745022 
0.2323197191 
0.232186619 
0.1959876782 
0.3204463125 
0.2116102925 
0.235132876 
0.3554716675 
0.2910416975 
0.2998777114 
0.2474611687 
0.3430522475 
0.297686029 
0.3495187224 
0.2740493665 
0.2790554749 
0.3613947567 
0.2228640829 
0.29435979 
0.2721961756 
0.3410718346 
0.2981424004 
0.3158104273 
0.308861174 
0.3965041711 
0.3392585163 
0.2796561769 
0.3005503981 
0.3795096205 
0.3049260156 
0.259113748 
0.1899554593 
0.142627991 
0.2671897666 
0.1998096741 
0.2727990886 
0.2175159745 
0.1967801917 
0.2084091367 
0.2373480527 
0.2288167536 
0.1902553439 
0.3379764477 
0.3108513873 
0.3385967245 
0.2562068496 
0.2611698957 
0.2878906552 
0.3014696037 
0.2244656932 
0.241584623 
0.3210712754 
0.2685602717 
0.239396082 
0.2505079109 
0.25361864 
0.2718322761 
0.2627654579 
0.2676630301 
0.2483251626 
0.3038690328 
0.2821770103 
0.3679081327 
0.2963316418 
0.2505506727 
0.2621118065 
0.2354751835 
0.378021827 
0.37279977 
0.2722669951 
0.2651222223 
0.2590447485 
0.2591856633 
0.2813322168 
0.3723362556 
0.2723539231 
0.2486513611 
0.3243824005 
0.3133964392 
0.2731835159 
0.2407651344 
0.2510872515 
0.2565795461 
0.1671274896 
0.2717620492 
0.2996456697 
0.3010472014 
0.3027837402 
0.3542372433 
0.2857882505 
0.2998347115 
0.2557920118 
0.3999573815 
0.269621428 
0.2424803663 
0.3277034538 
0.3125652031 
0.3251483871 
0.2808614263 
0.2246301983 
0.4382278186 
0.2649907588 
0.3023944065 
0.2477448764 
0.2960925224 
0.3145690571 
0.2952121561 
0.2773284915 
0.2129259486 
0.2712805754 
0.3360107017 
0.2528949041 
0.2679741267 
0.2444878844 
0.2368328472 
0.3426718872 
0.3134231788 
0.2362584103 
0.3678686349 
0.2576497124 
0.2765610963 
0.2975591095 
0.2876158377 
0.2756710023 
0.3007297895 
0.1798015334 
0.1891640204 
0.2430832805 
0.3001366827 
0.2534852742 
0.297106137 
0.201155537 
0.2440576888 
0.2477371776 
0.264500887 
0.2334348307 
0.2957966811 
0.2579324724 
0.2656269539 
0.332408198 
0.3113949419 
0.2930141927 
0.3662563154 
0.2781214388 
0.3100320222 
0.3047098466 
0.2505808858 
0.3344725352 
0.2827611764 
0.3898087237 
0.2672554894 
0.3385018663 
0.3599913076 
0.2623048933 
0.2320513119 
0.2796477707 
0.3368123444 
0.3267842654 
0.1986035415 
0.2503167075 
0.212131885 
0.2287418488 
0.2487186678 
0.3161287005 
0.2827491998 
0.3046463067 
0.3207394808 
0.1753274895 
0.2737007186 
0.2426207617 
0.2909737535 
0.2306965061 
0.2983389067 
0.2170037082 
0.2417447339 
0.231915728 
0.2308535393 
0.2858282768 
0.2628842914 
0.2344106733 
0.3021295541 
0.2740951902 
0.2890848994 
0.2978777454 
0.2808246399 
0.300348445 
0.3451643067 
0.2748679083 
0.5758411028 
0.4173775732 
0.512080845 
0.3684363708 
0.4951529764 
0.4897857103 
0.3264924681 
0.4227202522 
0.3476064705 
0.4807017094 
0.2908953816 
0.2588330739 
0.2903927664 
0.3073200162 
0.2898729949 
0.2993605618 
0.3026273835 
0.3233794267 
0.262999054 
0.3410984635 
0.209979582 
0.2154483222 
0.2860134586 
0.3043459857 
0.336944495 
0.2875036968 
0.2217813532 
0.3421788854 
0.2271554649 
0.2529475993 
0.265827161 
0.2392220711 
0.2152237742 
0.2284680744 
0.288370919 
0.3844327352 
0.2613917421 
0.1875039535 
0.1718727945 
0.2742775491 
0.226905727 
0.2819430136 
0.2797891816 
0.2835691447 
0.160885229 
0.2744661064 
0.2470006404 
0.4103718951 
0.3121037321 
0.6680581741 
0.2859782158 
0.508704016 
0.3843954023 
0.2919894821 
0.3239312648 
0.3086782699 
0.258520767 
0.2825399196 
0.2212447294 
0.1515229735 
0.3637637741 
0.1881125706 
0.2234333235 
0.2099147141 
0.265750265 
0.2191873816 
0.2072080382 
0.2999511074 
0.2433701564 
0.1920915623 
0.2957576773 
0.2680415021 
0.378567295 
0.2323979473 
0.3311261319 
0.2544884342 
0.3264883144 
0.3603285883 
0.2918007993 
0.3225152716 
0.3834275895 
0.2447403523 
0.3341739565 
0.4523786666 
0.3202055259 
0.2794513471 
0.2866305088 
0.3208300115 
0.2704545306 
0.3027597087 
0.2472515216 
0.4351326753 
0.3298326179 
0.309911148 
0.3438933714 
0.3064986797 
0.2937621352 
0.2651331911 
0.2562428362 
0.3239338515 
0.3772596995 
0.45081287 
0.2672197322 
0.3932279916 
0.2974529897 
0.2815564303 
0.2381475585 
0.2296877692 
0.2272953093 
0.2684645441 
0.251576374 
0.2798777006 
0.1920479648 
0.2337974354 
0.3145843046 
0.2677570855 
0.3442943332 
0.210652555 
0.2694004027 
0.2784650191 
0.303235497 
0.3081511543 
0.2907253758 
0.4012794614 
0.3095444177 
0.2020010372 
0.3358642275 
0.2764959253 
0.3324454136 
0.303797218 
0.2275844504 
0.2566680919 
0.2332275224 
0.3304716533 
0.2478035517 
0.324504178 
0.3859832308 
0.3109751423 
0.2838187452 
0.3048798614 
0.2566895009 
0.2661568962 
0.3390135487 
0.2587351696 
0.3432799059 
0.2286508018 
0.2916946849 
0.2667614624 
0.3262839018 
0.261630641 
0.2820257991 
0.2551981882 
0.3683691028 
0.2815684297 
0.3302401284 
0.2803239697 
0.2537850816 
0.3639925238 
0.2920635624 
0.2788415257 
0.2911894136 
0.3376022406 
0.2437702048 
0.3067646808 
0.2571444471 
0.2196939285 
0.3105940027 
0.3864048633 
0.3224273657 
0.3665233816 
0.2810202664 
0.2253045495 
0.2967999946 
0.289997872 
0.302869021 
0.3536217306 
0.1888240735 
0.2862910866 
0.1908765064 
0.2693754078 
0.1590682965 
0.2344787517 
0.261155157 
0.2670991287 
0.2869473671 
0.3115168689 
0.2612608911 
0.26034031 
0.3709230556 
0.3335668804 
0.2676521256 
0.258712144 
0.2399436452 
0.2598391732 
0.2426482382 
0.2730116791 
0.2885451428 
0.2366642192 
0.2574712516 
0.2412550058 
0.2347843535 
0.2350019809 
0.2406191462 
0.230633477 
0.2314029649 
0.3287664317 
0.2729523404 
0.2797996272 
0.3280485878 
0.2923500801 
0.2951332914 
0.3136205311 
0.3069585495 
0.3282650163 
0.31108182 
0.4229223857 
0.5841413173 
0.4949681239 
0.5137770801 
0.3212494561 
0.2589501545 
0.4553049112 
0.7110313309 
0.516229154 
0.422535404 
0.2809708437 
0.4460054643 
0.5011916467 
0.4334060924 
0.2458979221 
0.4013358269 
0.2470444171 
0.2922048039 
0.2829544728 
0.3061075566 
0.2928717789 
0.3576212241 
0.2995340462 
0.3612491713 
0.3650483737 
0.2237417221 
0.3096897409 
0.1968313864 
0.2751297994 
0.2470640523 
0.3478634386 
0.2727989658 
0.2529659613 
0.2473144853 
0.252989491 
0.2093569194 
0.2696446523 
0.2994130566 
0.2961245393 
0.2365058668 
0.2262480651 
0.2022991125 
0.3047258287 
0.3033195531 
0.2365921664 
0.2146896957 
0.2899258735 
0.2681979719 
0.2134856345 
0.2000467284 
0.239269269 
0.2817424967 
0.27583077 
0.2319721081 
0.3409720476 
0.2443035234 
0.09360954187 
0.3183742815 
0.06092497864 
0.2477757706 
0.3203587795 
0.1260930421 
0.1780358988 
0.2762569568 
0.1805094934 
0.2503535732 
0.2371726976 
0.2579446816 
0.3427823301 
0.2669052935 
0.423854068 
0.3078422494 
0.5290569203 
0.2997637489 
0.2981791339 
0.3352033728 
0.311044804 
0.3371598245 
0.7021421185 
0.4155031793 
0.3070514324 
0.2675552656 
0.2183121189 
0.3053100372 
0.2757962029 
0.3319677411 
0.2715673578 
0.3082398052 
0.3199373512 
0.2708197799 
0.2633022192 
0.2808158998 
0.3228662064 
0.1294509248 
0.1958898457 
0.258589868 
0.1795587579 
0.3633941322 
0.2416206854 
0.1709512531 
0.2312141001 
0.2659443116 
0.2184546054 
0.2339567035 
0.2586187516 
0.1682035985 
0.2436412685 
0.2737272487 
0.1899969846 
0.2341597078 
0.2154650066 
0.2243327852 
0.2502660275 
0.2661594114 
0.2743354562 
0.2877169219 
0.2953638239 
0.2345087785 
0.2924641841 
0.1983783512 
0.2410187425 
0.3104317662 
0.2755806186 
0.3354062388 
0.2403492279 
0.309226392 
0.2952752773 
0.3431588985 
0.3469763857 
0.3196597336 
0.3014873107 
0.3316026436 
0.3562152309 
0.3075121406 
0.3086804527 
0.2201389931 
0.2353082936 
0.2700161326 
0.3492229932 
0.2088965007 
0.525670137 
0.2709483894 
0.2940996897 
0.3694281826 
0.3247013866 
0.4388817615 
0.6056091454 
0.2268145412 
0.2275914945 
0.255724928 
0.273389227 
0.2244791263 
0.3396664169 
0.2403970034 
0.3173417655 
0.2600422364 
0.2708604932 
0.4024943085 
0.2959983891 
0.3598461222 
0.2713918063 
0.2595943405 
0.3471656058 
0.4207829308 
0.2877883567 
0.205040699 
0.4293014914 
0.2631200112 
0.430075733 
0.2695255955 
0.4160272312 
0.3187073526 
0.3523464856 
0.3953278981 
0.3197535921 
0.2840554396 
0.2933519237 
0.296565281 
0.2352352504 
0.2816015467 
0.3254902975 
0.3138633093 
0.248065076 
0.3014976354 
0.3276327328 
0.3108110926 
0.2228900587 
0.2488319975 
0.327954156 
0.233978239 
0.2449169827 
0.1864487558 
0.3286215282 
0.3009447624 
0.2936626719 
0.2645866078 
0.2314213017 
0.2690314707 
0.2987040552 
0.2633043371 
0.3896746225 
0.3549471896 
0.2533128917 
0.3199169606 
0.3584350998 
0.3768672971 
0.2622743966 
0.3212391727 
0.1981507098 
0.3280603428 
0.1966815557 
0.2520183069 
0.2803425421 
0.3085304777 
0.3618434199 
0.138404643 
0.2733649111 
0.1347901488 
0.1044004595 
0.1724894092 
0.2844403059 
0.3286819399 
0.2561455534 
0.3219465255 
0.303040602 
0.2614923007 
0.2532712691 
0.2716801214 
0.2912609659 
0.2123893955 
0.3408301829 
0.2639134967 
0.2232467119 
0.2882831039 
0.2972569416 
0.3101028551 
0.3394358085 
0.2333741423 
0.2506293302 
0.3373187879 
0.319215711 
0.3977961415 
0.5580891646 
0.4166408858 
0.3343083254 
0.4425510131 
0.4445503142 
0.2507547306 
0.2946554279 
0.2872228844 
0.3204705548 
0.2182844734 
0.2678009298 
0.29047696 
0.2472430215 
0.2430003925 
0.3105968461 
0.3254359772 
0.2621144388 
0.2262327375 
0.1731153412 
0.3544043404 
0.2723490682 
0.2305118834 
0.4485263467 
0.308766506 
0.3115371361 
0.1848132674 
0.2533295943 
0.4245852075 
0.2457685769 
0.4124070336 
0.2411283597 
0.3033642058 
0.3180182182 
0.2531264694 
0.2631688502 
0.2012287814 
0.1077276034 
0.07977458031 
0.2410158207 
0.2994126592 
0.2891628241 
0.3192275542 
0.3534962382 
0.2566847764 
0.230141622 
0.3380381397 
0.2057998993 
0.2612948203 
0.2910812165 
0.3030500902 
0.3272953581 
0.2755431119 
0.2785836141 
0.2390413127 
0.278662243 
0.2526055937 
0.2066491396 
0.264603589 
0.2946907194 
0.259518119 
0.2130827949 
0.3243580755 
0.2584971357 
0.2752332626 
0.2910232805 
0.1967306583 
0.2051817162 
0.4251603402 
0.3435771387 
0.1411220572 
0.231059606 
0.2745237501 
0.6040094066 
0.246225707 
0.2143044341 
0.2749339481 
0.2412255251 
0.329012968 
0.3726425355 
0.3711062771 
0.685047298 
SCALARS DD_DISTANCE_VAR double 1
LOOKUP_TABLE default
0.05819487823 
0.02613731516 
0.1086035327 
0.0659372646 
0.07996360661 
0.09502086168 
0.06933252263 
0.1108562588 
0.07290837194 
0.06567897362 
0.038802406 
0.02953423384 
0.05634860853 
0.1059529783 
0.04146826666 
0.09841782564 
0.09210122614 
0.0629366411 
0.07559023664 
0.06763335055 
0.02889947893 
0.05236029199 
0.05818607949 
0.04834138243 
0.06339821808 
0.0458996744 
0.1261677981 
0.08851139566 
0.06326330863 
0.03664258851 
0.04879395997 
0.09911155378 
0.06175350432 
0.05215782053 
0.03374590749 
0.07589156283 
0.05978182581 
0.06524460498 
0.06504150072 
0.07603497994 
0.04075647385 
0.05677121628 
0.05292768252 
0.05304353733 
0.05431482547 
0.06758796364 
0.04022303957 
0.07306303699 
0.102842597 
0.08455216212 
0.08932025523 
0.05104707655 
0.05235712507 
0.07050185447 
0.06016160922 
0.03841917147 
0.05467519697 
0.06310338749 
0.07084238548 
0.06267050235 
0.02632994491 
0.07882335785 
0.07481814507 
0.1045172257 
0.06299391063 
0.06641337609 
0.007983014032 
0.04016208391 
0.08166838535 
0.05204427346 
0.05484769653 
0.06235481829 
0.1113532403 
0.08080567018 
0.01845729719 
0.06965935377 
0.08622453442 
0.09244489096 
0.0451998908 
0.07176004054 
0.09150818176 
0.1093640431 
0.04598816451 
0.07380438597 
0.04493642677 
0.0711717856 
0.06261545128 
0.05642611122 
0.09315375367 
0.08534068622 
0.06746549893 
0.06647049279 
0.08407882013 
0.05094400115 
0.1105367601 
0.070381788 
0.09390455519 
0.09310175381 
0.05369990603 
0.09574755029 
0.09811759117 
0.1223257781 
0.08264102142 
0.0472847673 
0.01449604063 
0.06630069262 
0.03925394699 
0.03342645143 
0.1045475221 
0.05926343068 
0.05345696916 
0.1125975345 
0.06030681312 
0.08168933195 
0.05084079192 
0.07369093219 
0.05396248604 
0.03863343981 
0.07866321954 
0.0987831544 
0.01660860747 
0.05759510193 
0.0629417479 
0.06148536971 
0.08011506608 
0.05925088276 
0.07416344199 
0.1010428497 
0.06993290659 
0.06039966508 
0.07075220694 
0.07813090297 
0.07567379319 
0.07812611708 
0.1005446224 
0.06519997534 
0.1091039833 
0.1215665582 
0.05246704916 
0.0952896147 
0.07025262299 
0.04244050194 
0.03519300081 
0.08075209019 
0.09778388101 
0.07409843356 
0.0714413771 
0.06277909917 
0.06636766921 
0.02863486687 
0.04746174208 
0.09840942975 
0.05524482345 
0.1006840655 
0.02911259005 
0.03603024072 
0.05179231006 
0.08238902878 
0.0688867673 
0.05807243855 
0.06564598437 
0.09246948819 
0.04242776991 
0.06667687801 
0.03161853824 
0.03420287947 
0.065738564 
0.1358420706 
0.06300157281 
0.06979592536 
0.05237153434 
0.112143456 
0.093794055 
0.05119625891 
0.04843725082 
0.04790550125 
0.0790635742 
0.09158224964 
0.06343509368 
0.05761016301 
0.09998681477 
0.04665998718 
0.07429681546 
0.07628326901 
0.1078768901 
0.07551964599 
0.08098746474 
0.08294396595 
0.06394872669 
0.06221102125 
0.06200284534 
0.0352548917 
0.07806821596 
0.08008280526 
0.08444830412 
0.04699600787 
0.1019535323 
0.07675037036 
0.03644921466 
0.0153162787 
0.07526990299 
0.11948311 
0.05960831202 
0.0694058079 
0.04184520279 
0.09212278949 
0.07706230112 
0.03286633077 
0.05459553649 
0.04046985466 
0.03836452042 
0.03396117121 
0.03948265957 
0.08017045369 
0.09495396788 
0.05678704316 
0.05550504054 
0.01431081351 
0.04569572501 
0.04597530464 
0.05434562416 
0.08856806913 
0.07785046246 
0.1214027837 
0.07861951817 
0.05262352726 
0.04676391733 
0.08312554812 
0.04935723111 
0.1117473503 
0.06218987655 
0.08947966726 
0.076899253 
0.05706224104 
0.0757986589 
0.1212919406 
0.08897181602 
0.07906667274 
0.04976035125 
0.09522906887 
0.07873109338 
0.06444348462 
0.0886572685 
0.04721287576 
0.0541333604 
0.0963287106 
0.1037131661 
0.03996334465 
0.1350951804 
0.1027331339 
0.05374376305 
0.02582336046 
0.06392134208 
0.06947950095 
0.05682324769 
0.09593103194 
0.1269774582 
0.0307614397 
0.1072834547 
0.06712951006 
0.1159899039 
0.09103540512 
0.1070973288 
0.02335882434 
0.1396614608 
0.06661398051 
0.08856897563 
0.0721455463 
0.09380581014 
0.03358712449 
0.1019515812 
0.02316296003 
0.07857269736 
0.04069638862 
0.06797096996 
0.04770995793 
0.05017753908 
0.1182591654 
0.05447619435 
0.09708526006 
0.06993515287 
0.05287833974 
0.0477256161 
0.04310451199 
0.06443432196 
0.05554535412 
0.06939639582 
0.07017263161 
0.1081773158 
0.1425046302 
0.08129866299 
0.04530621273 
0.05606028712 
0.136902125 
0.07332152972 
0.1064570027 
0.09362086379 
0.06251420665 
0.08629628897 
0.0667266109 
0.08162725564 
0.04607134961 
0.09892952129 
0.1195528153 
0.03596659704 
0.06504254436 
0.07431476795 
0.1162685992 
0.144572911 
0.08852037032 
0.05901370791 