# vtk DataFile Version 3.0
MOAB 5.5.0
ASCII
DATASET UNSTRUCTURED_GRID
POINTS 940 double
131.625 0 0
190 0 0
141.4830673 0 0
149.0903427 0 0
156.6938293 0 0
164.2776541 0 0
171.8078922 0 0
180.5341075 0 0
190 13.35 0
190 7.061874793 0
229.3618102 13.35 0
198.1376649 13.35 0
204.8183396 13.35 0
213.0000408 13.35 0
219.8168714 13.35 0
210.4354116 92.20629078 0
228.2518665 26.19442571 0
226.4942722 38.54098022 0
224.6624517 48.08165239 0
222.4007438 57.64522219 0
219.1990729 68.82462446 0
214.9665587 81.08292745 0
172.5163769 130.1253254 0
204.2851327 98.35656967 0
200.0403153 102.601387 0
196.3836287 106.2580736 0
193.447253 109.1944494 0
190.2789873 112.3627151 0
187.1555603 115.486142 0
184.1706585 118.4710438 0
180.8313868 121.8103156 0
177.0089397 125.6327626 0
148.4747464 106.0836948 0
165.7076994 123.3166479 0
156.8313944 114.4403428 0
106.0836948 148.4747464 0
142.0248226 112.5336187 0
136.331188 118.2272533 0
130.0158091 124.5426321 0
124.54263 130.0158112 0
118.2272303 136.3312109 0
112.533662 142.0247792 0
130.1253254 172.5163769 0
114.4399995 156.8310511 0
123.3170715 165.708123 0
92.20629078 210.4354116 0
125.6314336 177.0102688 0
121.8076827 180.8340196 0
118.4673146 184.1743878 0
115.4816219 187.1600805 0
112.3579097 190.2837927 0
109.1936453 193.4480571 0
106.2646629 196.3770395 0
102.6096329 200.0320695 0
98.36016463 204.2815377 0
13.35 229.3618102 0
81.17401814 214.9321783 0
68.94801428 219.1602925 0
57.79466515 222.3619553 0
48.21327289 224.6342423 0
38.27433423 226.5394841 0
25.95629467 228.2790688 0
13.35 190 0
13.35 219.832497 0
13.35 213.0081586 0
13.35 204.8244724 0
13.35 198.1418765 0
0 190 0
7.061892091 190 0
0 131.625 0
0 180.5333285 0
0 171.8072503 0
0 164.276711 0
0 156.692394 0
0 149.088565 0
0 141.4811971 0
9.910939106 131.2513387 0
19.80709958 130.1261674 0
29.05732331 128.3776172 0
38.59787394 125.8385662 0
46.89011977 122.9896634 0
55.7088525 119.2546199 0
64.64808987 114.6549829 0
71.98008554 110.1998544 0
80.07191059 104.4683194 0
86.55133069 99.16656584 0
93.18966887 92.95604468 0
99.34487911 86.34660167 0
104.6890208 79.78314079 0
110.2883451 71.84442615 0
114.7499554 64.47936389 0
119.3114435 55.58704954 0
123.0724044 46.6725177 0
125.8961222 38.40972574 0
128.4098442 28.91457289 0
130.1598281 19.58468203 0
131.260957 9.782729065 0
102.8741932 182.3877934 0
102.1102443 180.061126 0
100.228398 178.677098 0
97.84484353 178.6213578 0
95.83255938 180.0019563 0
95.02426155 182.3646279 0
95.84343978 184.7877769 0
97.90528927 186.1714278 0
100.2109435 186.10446 0
102.0941238 184.7362049 0
186.3127934 98.94919318 0
185.565608 96.64547461 0
183.4769869 95.1783468 0
180.9310801 95.30452427 0
179.0629458 96.86328482 0
178.4729666 99.23160543 0
179.3091841 101.3838985 0
181.2993322 102.720251 0
183.7983025 102.6119911 0
185.6785345 101.0885033 0
166.6401678 79.27656761 0
165.9481262 77.05089803 0
164.0322855 75.5791596 0
161.5084703 75.54166383 0
159.5284386 76.98519644 0
158.7941863 79.09900313 0
159.3938975 81.36816708 0
161.3515859 82.95709331 0
163.9052489 83.01679915 0
165.8914148 81.58244709 0
83.20156761 162.7151678 0
82.37340292 160.3036877 0
80.34592484 158.9386482 0
78.10868957 158.967944 0
76.1839081 160.2983347 0
75.35197542 162.6585893 0
76.11007862 165.034429 0
78.03847908 166.4397834 0
80.39997154 166.4759641 0
82.40267813 165.0885742 0
50.50174628 201.2988556 0
49.3006896 199.2622539 0
47.00392069 198.2703983 0
44.5491954 198.8838179 0
43.0402321 200.7063076 0
42.80989471 202.851462 0
43.92238743 204.9774709 0
46.23580693 206.0818744 0
48.7363063 205.5233896 0
50.31268836 203.6616177 0
44.54054334 175.4780488 0
43.46195993 173.5563244 0
41.73969078 172.5717905 0
39.62044855 172.5920186 0
37.69334328 173.8573204 0
36.79801229 176.1288315 0
37.41909531 178.4905629 0
39.18418003 179.974667 0
41.34581926 180.2351436 0
43.11676808 179.4662376 0
44.38968402 177.7432644 0
203.0647213 42.85294127 0
200.9067429 42.96521719 0
199.0291037 44.3393523 0
198.2572333 46.73643884 0
199.1011245 49.10944879 0
201.0779023 50.44391521 0
203.4428063 50.39425903 0
205.4025572 48.92061678 0
206.1007862 46.46036159 0
205.1297854 44.08602384 0
177.2439146 36.89173833 0
174.5801912 37.21836867 0
172.7924143 39.08183618 0
172.5037501 41.44235641 0
173.4777537 43.37933833 0
175.5949986 44.56567261 0
178.0596513 44.25452276 0
179.7462591 42.70247471 0
180.2828303 40.55888812 0
179.442167 38.28469633 0
138.3367665 6.767523602 0
193.5909053 19.68227966 0
201.2510335 90.08489081 0
139.1612059 103.3107317 0
103.5972438 159.2767747 0
82.87119182 204.5996127 0
10.94105573 183.1088565 0
104.8135679 180.9022641 0
187.7996016 97.66106528 0
168.1695668 77.60114612 0
84.79316036 160.4368594 0
51.54044328 199.0731014 0
45.38725924 173.6275748 0
201.9457174 41.08333667 0
175.4895705 34.8874313 0
148.55124 8.772793296 0
160.2214434 8.508896219 0
168.9316041 7.768438233 0
175.8660364 6.635856947 0
182.7249563 10.2506783 0
201.1362386 19.91005141 0
208.4313318 20.57597587 0
216.4463442 22.28402355 0
218.290568 32.09633234 0
216.7984632 41.69808912 0
214.914386 50.85301093 0
212.3086068 60.29771336 0
208.9383535 71.0326163 0
205.0832695 81.49378246 0
197.1187006 96.19539097 0
194.2612308 101.2594816 0
192.0814647 105.2959065 0
189.2977206 108.2968493 0
186.2836819 111.2505567 0
183.1277077 114.1134994 0
179.3021105 117.0378221 0
174.2528018 121.404935 0
166.7059881 112.3364948 0
159.4386688 105.2614698 0
134.3142443 110.0303674 0
126.9997674 114.7568388 0
118.3825544 123.8495815 0
108.3918795 132.0208209 0
101.7072275 140.9396916 0
111.89581 167.4741221 0
119.4477876 173.9878876 0
116.2798285 179.5122029 0
113.833981 183.3360422 0
111.2867499 186.4948878 0
108.4512284 189.4083491 0
105.3060447 192.1928933 0
101.7511541 195.0642965 0
97.39467024 198.0508593 0
91.38227149 201.1755229 0
72.30915338 207.885245 0
60.52807504 210.3260569 0
50.93604571 214.846708 0
41.63990344 216.9836475 0
32.11278189 218.5066092 0
22.34328984 216.4619253 0
20.74407009 208.3226244 0
20.04413069 200.9711747 0
19.81117963 193.6533743 0
8.403266132 175.0965353 0
7.185077269 167.4202347 0
6.021005827 160.8669262 0
9.471661865 153.5541734 0
16.72537379 137.5569089 0
25.64826853 137.5180775 0
35.78300151 135.729885 0
45.58946845 132.871766 0
55.0292925 129.1874217 0
64.31896356 124.7758571 0
73.16205994 119.8037642 0
81.44702465 114.1494629 0
88.72713537 108.0189676 0
95.48654475 102.0864009 0
102.5161582 95.78782613 0
109.0527722 88.54920697 0
114.8383284 80.63742529 0
120.1158715 72.39564279 0
124.9537381 63.75055619 0
129.2625976 54.59187725 0
132.8337854 45.24563909 0
135.6045928 35.55362678 0
137.5944769 25.50721151 0
138.8213718 15.30482289 0
103.1960939 178.2563879 0
98.82546416 176.5855379 0
101.5112288 176.167842 0
96.28120497 177.1274728 0
93.16227527 180.6891154 0
93.64455606 177.9470392 0
93.03804403 183.2824103 0
95.21139888 187.2265435 0
99.42708076 188.0645245 0
102.0679467 187.049435 0
104.4865283 184.5677232 0
186.5492462 94.95408755 0
181.8351516 93.02893202 0
184.7017978 92.58559446 0
179.2426508 93.82358059 0
176.4811593 97.72506126 0
176.7414563 94.88416012 0
176.5532757 100.5253948 0
179.6152645 104.0181922 0
182.5344653 104.7891174 0
185.5952436 103.5277406 0
187.8664753 101.0150282 0
166.8617861 75.27469151 0
162.8812295 73.31994355 0
165.3277436 73.49888047 0
160.1313391 73.83387498 0
156.9228447 77.48321867 0
157.4939262 74.70289135 0
156.7084301 80.2228641 0
159.4236138 84.18566254 0
156.9462502 83.13187717 0
161.8065783 85.2136365 0
166.0525973 84.18778752 0
168.6586207 80.41240893 0
83.17359317 158.2776118 0
79.08510302 156.7563134 0
81.43701148 156.6711566 0
76.51537663 157.4181976 0
73.46790893 161.10277 0
73.9282942 158.3665116 0
73.29173887 163.8468079 0
76.10540686 167.9489448 0
73.44616006 166.7999792 0
78.69254672 168.7952588 0
82.8353291 167.43975 0
84.57727225 165.35058 0
49.73828441 197.0389672 0
44.92108555 196.3652509 0
42.53218655 197.677186 0
40.8196345 201.8690938 0
40.24106117 199.2458012 0
41.30806325 204.1377144 0
44.47247402 207.5440465 0
47.46180793 207.7879185 0
50.46241093 206.7209914 0
52.62285424 201.6591636 0
43.71782903 171.8585687 0
41.64575125 170.7834907 0
37.69704463 171.2874028 0
39.6955537 170.1559576 0
35.63783265 173.1051833 0
34.90947565 178.1119803 0
33.68029114 175.2964968 0
36.42291996 180.4096978 0
40.28185741 181.9861287 0
38.06514637 181.9559384 0
42.62471177 181.6155137 0
44.81000794 180.5084976 0
46.39059939 176.0115428 0
199.259747 41.40123912 0
196.1185415 45.13692144 0
196.1787676 47.88536318 0
199.0090344 51.85564148 0
196.4217076 50.58535119 0
201.6940091 52.7245785 0
206.0117793 50.97794137 0
208.3383862 48.50581888 0
207.7372579 45.00186413 0
204.6062521 41.55721927 0
172.8807104 35.99185371 0
170.5191718 40.1117998 0
170.52614 37.32203861 0
170.9246116 42.58728578 0
173.5185096 45.75355557 0
171.5683483 44.61421144 0
176.0840781 46.5957336 0
180.4988142 44.84586316 0
181.9290464 42.83713615 0
181.7691314 38.38330212 0
183.2740316 40.60833797 0
180.273168 36.31526158 0
184.6121128 19.29638152 0
170.2080697 117.793898 0
146.0074104 96.48939784 0
96.84877608 150.6471807 0
124.6304045 172.3056641 0
19.82476984 185.45021 0
8.025389041 141.679958 0
86.11898619 162.9544101 0
178.506872 34.200597 0
156.8066014 18.1804276 0
166.0800494 16.27434927 0
197.4274688 26.03007429 0
204.23854 26.38287899 0
210.7917747 28.11673371 0
210.8266147 35.73430361 0
211.2759643 45.54926142 0
209.9351736 54.08417988 0
203.5849118 62.49267632 0
196.4329524 82.49948841 0
194.0114284 89.80827673 0
192.9724464 97.20199763 0
190.6480419 102.2463726 0
188.4553288 104.5838467 0
185.2535013 107.1342559 0
182.5908983 110.1367542 0
179.2284319 112.317037 0
154.4102333 98.0272274 0
167.7893979 103.3093757 0
126.9337171 101.3101071 0
115.8082328 110.5693832 0
104.4349845 118.7196596 0
94.8286586 130.3055645 0
102.8147591 168.1975381 0
112.486971 175.1486866 0
111.5248035 179.7137726 0
109.8852769 183.0697781 0
107.6645066 185.780134 0
104.8787001 188.2624115 0
101.2988555 190.5509629 0
[...]
CELL_DATA 1705
SCALARS DD_DISTANCE_AVE double 1
LOOKUP_TABLE default
0.1220840197 
0.07551205924 
0.2105096492 
0.1827296691 
0.153867188 
0.1333479258 
0.1438892568 
0.116202103 
0.1003553207 
0.1098902465 
0.1187591121 
0.1333108282 
0.1116411551 
0.1122995908 
0.1222750617 
0.1473391927 
0.1582533831 
0.1328895764 
0.131399663 
0.1293116683 
0.1136035159 
0.1238533597 
0.1325991857 
0.1896047577 
0.2143157978 
0.135076615 
0.1911374984 
0.1965998499 
0.1261001606 
0.173649312 
0.1305253787 
0.1195431138 
0.1590913004 
0.1307124533 
0.2042487608 
0.1387668155 
0.1475928177 
0.1403534922 
0.235129455 
0.1476861845 
0.1073870025 
0.08929666192 
0.112485541 
0.1474898136 
0.2682680725 
0.1800332317 
0.1826701658 
0.09842269318 
0.2136561021 
0.295956596 
0.1721237333 
0.1321832715 
0.1396648516 
0.1649723226 
0.153637952 
0.1314865849 
0.1475362664 
0.1412925184 
0.1652389754 
0.1381499265 
0.1184010847 
0.1631998043 
0.09244454492 
0.1392221488 
0.1421002112 
0.134490739 
0.1323312373 
0.1179437498 
0.1560139181 
0.1127099771 
0.1008721397 
0.1668366348 
0.1391419211 
0.1993659228 
0.08559784737 
0.2157222516 
0.107132939 
0.1604941332 
0.1315895194 
0.160610542 
0.1177221727 
0.1135306296 
0.1608875275 
0.1387740749 
0.1391702292 
0.09207517813 
0.2301286697 
0.1492020589 
0.295512374 
0.2273264337 
0.1299943671 
0.0892431426 
0.1609225948 
0.1135283692 
0.1367179853 
0.1738748214 
0.1377810921 
0.1095665694 
0.2794437853 
0.2139466292 
0.225347476 
0.2924787416 
0.3008007394 
0.2158627109 
0.1071043063 
0.2549836213 
0.2575435656 
0.1778474587 
0.1204499929 
0.1635537151 
0.1297486911 
0.1586953345 
0.1004700361 
0.2249477118 
0.2736092388 
0.2280175862 
0.1971810408 
0.1973593964 
0.1151515102 
0.1499393311 
0.1282835789 
0.1294148333 
0.1742010297 
0.2960753662 
0.3080939687 
0.2951168998 
0.160353226 
0.1156148543 
0.1277400322 
0.1493268972 
0.1073320814 
0.131267138 
0.07310583351 
0.1214213722 
0.1241037279 
0.2169360657 
0.1437987616 
0.1010488676 
0.0779674339 
0.1204362406 
0.1128505727 
0.1305691158 
0.1347671065 
0.1628062037 
0.1158857507 
0.1334416029 
0.131841068 
0.1202174756 
0.1151433249 
0.1519887543 
0.1472670371 
0.1156370044 
0.1672984484 
0.1263991345 
0.1376196147 
0.1046825303 
0.1376536509 
0.1635124156 
0.09509916182 
0.1964834992 
0.1228817475 
0.1414475621 
0.1076389547 
0.1509825372 
0.133678305 
0.136308997 
0.1442615728 
0.09967598079 
0.1431635408 
0.1266667253 
0.1514245667 
0.1305644089 
0.1236986425 
0.1248888244 
0.1330617734 
0.1164128268 
0.1147768603 
0.1606740796 
0.1613873606 
0.1198670135 
0.1767705567 
0.1300849806 
0.1392714085 
0.1584602114 
0.1391357958 
0.1052294264 
0.1215212427 
0.138017279 
0.1477910261 
0.2457772672 
0.1210155712 
0.1545456377 
0.1445094941 
0.17080837 
0.2177426072 
0.2183396852 
0.165846813 
0.1251786266 
0.2232955187 
0.1816410814 
0.1364452848 
0.1403562406 
0.1443398378 
0.1506079079 
0.1935939001 
0.1398945442 
0.1167552402 
0.1278369462 
0.1832279845 
0.1176633259 
0.1715987996 
0.1255873467 
0.1038841379 
0.128341244 
0.08689833026 
0.1017360624 
0.1620424761 
0.1376582512 
0.1385813476 
0.1421074438 
0.2217816748 
0.2465946902 
0.1573249142 
0.2128023559 
0.263065883 
0.1380358101 
0.2333688286 
0.1609039524 
0.2727813535 
0.1764600621 
0.2313382065 
0.1260789588 
0.1161786352 
0.1370051643 
0.1294736634 
0.1116240167 
0.1721866965 
0.1288036481 
0.1323825043 
0.1141386581 
0.169923618 
0.1470955342 
0.1140334388 
0.145989089 
0.1132187854 
0.08429625306 
0.2727603344 
0.150918583 
0.1346107871 
0.2530705387 
0.2660485778 
0.1259648996 
0.2397490591 
0.213539774 
0.09346658965 
0.1331852385 
0.08351471629 
0.09972427424 
0.09812449607 
0.1559293269 
0.2595314102 
0.2746753251 
0.09807147948 
0.2561262029 
0.209826497 
0.2312720853 
0.1311472673 
0.1555436025 
0.1128812546 
0.1654292869 
0.1181131965 
0.09338226884 
0.1044395426 
0.0881585099 
0.1348730463 
0.1029872358 
0.09699477402 
0.1049786036 
0.1051197754 
0.135308955 
0.2205080741 
0.1814304924 
0.2494124185 
0.3113703007 
0.1837906507 
0.1072793533 
0.1222186485 
0.2526010061 
0.2505494222 
0.1716280249 
0.1223103362 
0.2828333804 
0.0819731123 
0.1731876326 
0.1906386056 
0.2204913213 
0.09884594893 
0.1443159833 
0.1132964183 
0.1549332061 
0.1811268694 
0.1629010134 
0.1113309603 
0.1518113865 
0.1274527629 
0.08319379071 
0.1692263821 
0.1402861381 
0.1327455434 
0.1281982062 
0.1170811821 
0.1173486569 
0.1519870935 
0.213924904 
0.1002056887 
0.1115485106 
0.1523613489 
0.1542467227 
0.1599631264 
0.2012694584 
0.1638657791 
0.1537056474 
0.1353538716 
0.1131617091 
0.1326868796 
0.1510942344 
0.1401021023 
0.1476031959 
0.1202916959 
0.1320802927 
0.135969683 
0.1296851163 
0.1121472579 
0.1179652714 
0.1525233334 
0.1496000489 
0.1038739158 
0.1341976649 
0.1178950438 
0.1346392933 
0.1186541388 
0.1431145485 
0.1436240906 
0.1929163909 
0.1546444798 
0.1508826406 
0.1364094582 
0.1368793944 
0.09096757943 
0.1133040151 
0.1390610839 
0.135225504 
0.1130717018 
0.1580968903 
0.1338283526 
0.157580393 
0.1330512071 
0.1986410468 
0.1155689742 
0.118809696 
0.1930269323 
0.1213710432 
0.1975633653 
0.1647378488 
0.13701326 
0.1717859345 
0.1167143082 
0.08363227109 
0.1238453308 
0.1443794328 
0.1515661539 
0.2523816613 
0.1501964178 
0.1404330121 
0.1415819233 
0.1614944637 
0.1529460342 
0.1177233134 
0.1400570912 
0.1189433879 
0.150824492 
0.1751324675 
0.1310885922 
0.2008586871 
0.137226125 
0.1406414024 
0.1657492374 
0.1488666401 
0.1290642466 
0.1959241169 
0.1442990163 
0.1380589898 
0.1179503165 
0.1065878018 
0.1439517036 
0.1243201264 
0.1606670084 
0.1568791363 
0.1305050885 
0.1269168497 
0.1587973369 
0.1603391663 
0.1020313019 
0.1216440785 
0.1021666866 
0.146765239 
0.1144084638 
0.09964543212 
0.08507074895 
0.1170868698 
0.118754558 
0.1435307578 
0.1292211164 
0.1297488124 
0.1248091797 
0.1795688385 
0.1233631493 
0.1873544695 
0.1589352759 
0.1339583746 
0.135832167 
0.09878850874 
0.1189305115 
0.1002714175 
0.140042555 
0.1573167991 
0.1434242965 
0.1189773446 
0.09073372543 
0.1372024262 
0.09366862883 
0.1304545828 
0.2450547922 
0.1376797526 
0.2176648328 
0.2019430009 
0.1996497506 
0.1517172814 
0.1212995462 
0.1029341469 
0.1557702958 
0.1246872114 
0.1764510854 
0.1083407884 
0.1344008439 
0.1199751936 
0.1962169381 
0.1241977907 
0.1422682595 
0.1936984518 
0.0974678447 
0.1337457398 
0.1062637377 
0.09869679165 
0.2265231501 
0.1959932781 
0.2334389652 
0.1149876968 
0.1488204366 
0.1388657622 
0.1577498481 
0.1287809082 
0.1596109998 
0.1205393962 
0.1325318326 
0.1939471225 
0.2962028181 
0.1799226241 
0.1107395296 
0.131439753 
0.1662743713 
0.1271433541 
0.1313110328 
0.221381367 
0.1405968767 
0.1251462339 
0.1873121895 
0.1236300506 
0.06681130991 
0.1163052621 
0.1661936206 
0.2473559256 
0.2618614029 
0.1093645092 
0.251133556 
0.1548755177 
0.1300664437 
0.1796048104 
0.124397653 
0.1172666169 
0.1150303435 
0.1094757323 
0.1126687933 
0.1133375907 
0.1069384993 
0.1107540065 
0.1732731241 
0.1174071261 
0.1343314725 
0.1300171214 
0.1112220445 
0.172876731 
0.1238002183 
0.3087789278 
0.2069393212 
0.1063769168 
0.1396825924 
0.105197746 
0.1405210916 
0.2929759147 
0.1199336028 
0.2973058329 
0.1108869625 
0.2121168949 
0.1699144394 
0.1001165445 
0.1438424537 
0.1506166754 
0.2024740567 
0.1285235453 
0.1808553514 
0.09596523045 
0.1133541066 
0.1552046904 
0.1539324746 
0.1187827257 
0.1781429553 
0.1944071351 
0.1781536425 
0.1559001727 
0.1571579729 
0.1690150178 
0.1189917994 
0.2037613469 
0.1375228961 
0.09436037836 
0.1053099769 
0.1537439147 
0.1495839012 
0.124681152 
0.1288066742 
0.1553948337 
0.1949649186 
0.1327226639 
0.1761244811 
0.1744701635 
0.1670638693 
0.09422461211 
0.1468882692 
0.1870425058 
0.1456041283 
0.1470102584 
0.1163192419 
0.1276056205 
0.1516621899 
0.1411810758 
0.1220240002 
0.134869871 
0.1250267911 
0.1096541437 
0.1123898456 
0.1578841506 
0.1697011122 
0.1637695501 
0.1524454949 
0.1113576846 
0.1399351892 
0.1171385863 
0.1442930223 
0.130440087 
0.1925723863 
0.2018042225 
0.1360722869 
0.1561803181 
0.1438048498 
0.1657365078 
0.1333145203 
0.1273981954 
0.1500634366 
0.156934134 
0.1532186021 
0.1650430865 
0.1613662171 
0.1457802041 
0.1253777272 
0.1836150289 
0.1093140945 
0.2162233939 
0.1703401395 
0.1409464567 
0.09717204888 
0.1516288319 
0.1395461523 
0.1537719204 
0.1666178418 
0.1203174049 
0.1576295274 
0.147989784 
0.1163712373 
0.146259356 
0.1347390488 
0.1353695888 
0.1452551025 
0.1499868487 
0.1669554012 
0.1378546292 
0.1440602683 
0.1508118076 
0.1795763333 
0.1563475191 
0.1500763434 
0.17736411 
0.1371053414 
0.1433119188 
0.1532360209 
0.1429043857 
0.1527567878 
0.1508179908 
0.1749765957 
0.1427576576 
0.1380969842 
0.1280138308 
0.1453340857 
0.1751128585 
0.1367767067 
0.1740067284 
0.1386364533 
0.227589622 
0.1564289634 
0.1523053325 
0.1760260074 
0.1234414354 
0.1330802127 
0.2061151373 
0.2739178621 
0.2581032831 
0.1544232629 
0.1418043958 
0.1304192478 
0.1800689485 
0.1645865045 
0.1090588389 
0.1145990541 
0.1406310884 
0.1351263761 
0.1368070716 
0.2273052097 
0.1670216134 
0.1374420879 
0.1917721978 
0.1791191687 
0.1379030585 
0.1307765789 
0.1773129031 
0.15264742 
0.1179954868 
0.1200929804 
0.1391107226 
0.1271727635 
0.125352693 
0.1410252091 
0.1115354016 
0.1518861212 
0.1415171437 
0.1302321452 
0.1903809829 
0.1747832594 
0.1351510135 
0.1732237948 
0.1201645899 
0.09609429895 
0.1922745711 
0.1652434777 
0.1124631105 
0.1219929149 
0.1124124736 
0.1322090435 
0.1486472966 
0.1254177203 
0.114358667 
0.1312825325 
0.1248700707 
0.1157049498 
0.132261228 
0.07326545687 
0.1231620258 
0.1438411499 
0.1633233251 
0.1396458411 
0.1319585948 
0.1598902575 
0.1582341571 
0.1384992162 
0.1416991224 
0.1395172835 
0.1115290788 
0.1469985729 
0.1420860596 
0.1457473454 
0.1073272287 
0.1332267451 
0.1267745437 
0.1095452906 
0.1715131622 
0.1087514054 
0.1743558364 
0.1613662147 
0.2075165685 
0.1452443638 
0.1520544392 
0.3259551555 
0.1601657525 
0.09269804473 
0.1064858475 
0.1433614797 
0.1249444197 
0.09428253341 
0.1506001182 
0.1369493886 
0.162444367 
0.1391505245 
0.1391622409 
0.2106950102 
0.106538204 
0.1297360626 
0.1100750385 
0.1218489354 
0.08962500684 
0.1514739097 
0.1114448607 
0.214149771 
0.1458159678 
0.1193525143 
0.2927962878 
0.1853093583 
0.2817489007 
0.2186827179 
0.2219002806 
0.1470249173 
0.1332177705 
0.1721138324 
0.1283364877 
0.1738749429 
0.1285077024 
0.2091078958 
0.1311716095 
0.1339003094 
0.2178186456 
0.1017906731 
0.138228919 
0.1401927974 
0.1359239696 
0.1367252783 
0.1259257015 
0.1304182855 
0.1177298027 
0.131909142 
0.145673813 
0.1245259211 
0.1171671895 
0.1725384378 
0.1474172356 
0.1380497677 
0.1143465499 
0.1093992962 
0.1274942844 
0.1263318483 
0.1139790097 
0.1268804186 
0.1347467086 
0.1485653654 
0.2113597959 
0.1101197224 
0.2225773442 
0.1414972453 
0.1324178705 
0.162807196 
0.1247363632 
0.1407463024 
0.1711916615 
0.1520240657 
0.1566963479 
0.2199916126 
0.2247823028 
0.1795532498 
0.279473626 
0.2048748441 
0.1282198323 
0.1349708457 
0.2397546092 
0.10366192 
0.146308865 
0.1285506593 
0.1468420191 
0.301799672 
0.1179579907 
0.1161785493 
0.1578381817 
0.1787577413 
0.1117657369 
0.1684490242 
0.1615260491 
0.137811582 
0.2166659589 
0.1674929712 
0.1543426177 
0.1374169118 
0.1730529507 
0.1231457875 
0.179640123 
0.1382833245 
0.1572511749 
0.1447672067 
0.1206299865 
0.1112604979 
0.1317109424 
0.1524075313 
0.1260737297 
0.1714511408 
0.1742602178 
0.1266017939 
0.1621367422 
0.1759167289 
0.1169823465 
0.1642928648 
0.134331139 
0.1903143692 
0.1339008609 
0.1617338849 
0.136237072 
0.1955875689 
0.1115560314 
0.1584481412 
0.1353589174 
0.1458529004 
0.1648346453 
0.1515534082 
0.1010377016 
0.1272721873 
0.1563615512 
0.1630099766 
0.125970368 
0.1422102993 
0.1630630695 
0.165631383 
0.163535478 
0.1691187371 
0.1589864053 
0.1659328019 
0.1939429859 
0.2072077789 
0.1509950129 
0.1594938005 
0.138059999 
0.09514784917 
0.1110451562 
0.1578097693 
0.1188758286 
0.1803925633 
0.2020506441 
0.1935127764 
0.1757421627 
0.1675425379 
0.15337679 
0.1510083164 
0.1140321362 
0.2057885861 
0.1997387298 
0.1729233916 
0.1138038068 
0.1570032961 
0.1138451256 
0.1251932131 
0.1169583533 
0.140591732 
0.130528058 
0.2282894639 
0.1285954337 
0.1712961566 
0.1863032465 
0.134790309 
0.2034178451 
0.1556227802 
0.1456013307 
0.1405148158 
0.1559179098 
0.1176279204 
0.1267464031 
0.1460335333 
0.1644520728 
0.1394771031 
0.1820136033 
0.1364189427 
0.1643814932 
0.1632464172 
0.1880226595 
0.1707039226 
0.1480581918 
0.1598458265 
0.1484728025 
0.1499178393 
0.167029194 
0.1661029087 
0.1607854138 
0.1575691579 
0.1180542143 
0.1760849945 
0.1612729466 
0.1520341127 
0.1459286568 
0.1699021101 
0.1579882546 
0.1514887141 
0.1327651552 
0.1473789415 
0.1390966562 
0.1680601373 
0.08782816794 
0.1669923518 
0.14489321 
0.1390813994 
0.1591059057 
0.2086702844 
0.1436202239 
0.3001228774 
0.1343820448 
0.1324807816 
0.2198629597 
0.2006295555 
0.1033840437 
0.1918111171 
0.1733342529 
0.1595348891 
0.1364147994 
0.1399786609 
0.1036601961 
0.1058264974 
0.1751181341 
0.2171726405 
0.1777215097 
0.1514360378 
0.138712166 
0.1235646469 
0.1384701122 
0.1252275301 
0.1350886801 
0.1357939972 
0.1535748242 
0.1222783942 
0.1635064742 
0.142875865 
0.1319502693 
0.1549130709 
0.1333845364 
0.1418337242 
0.1275469482 
0.1557850156 
0.09369673879 
0.1328515733 
0.1156592337 
0.1615813835 
0.100631907 
0.09771677221 
0.1030268229 
0.1063289461 
0.1311524176 
0.1134985939 
0.1310838782 
0.1112929441 
0.1311367792 
0.1426502546 
0.1640151355 
0.1243628661 
0.1224728411 
0.1605950021 
0.1135311651 
0.09948800608 
0.0941291701 
0.1353142409 
0.1992737153 
0.1940662229 
0.20201398 
0.1594119738 
0.11837391 
0.1281841475 
0.1351923644 
0.1198951297 
0.1127783962 
0.1711273292 
0.1164965519 
0.1531960049 
0.2327518526 
0.1370118266 
0.1180144911 
0.1142137864 
0.196712077 
0.1319403867 
0.1775057101 
0.2355993399 
0.1894229553 
0.1523279469 
0.1562231816 
0.128368936 
0.2441232655 
0.1737219629 
0.1186982943 
0.3161349064 
0.1158778443 
0.1809161329 
0.1531369695 
0.1461854627 
0.116825333 
0.1578228045 
0.1840712908 
0.142981717 
0.1290829709 
0.1763825748 
0.1904804685 
0.164484912 
0.2114652748 
0.1353706321 
0.1771469975 
0.1336774008 
0.1241205346 
0.09830523683 
0.189904648 
0.09876590488 
0.1269585956 
0.123295232 
0.2604803199 
0.110692886 
0.1510944352 
0.1638246027 
0.115638616 
0.1759802141 
0.1623504792 
0.1636002884 
0.1365017406 
0.1283052681 
0.1672975324 
0.2128893616 
0.1695961452 
0.1277930499 
0.09612403504 
0.1189037511 
0.234896921 
0.1369834704 
0.1633481757 
0.1491022038 
0.1588044575 
0.2317512277 
0.1217082251 
0.1225728881 
0.1722894535 
0.1304888464 
0.1166842618 
0.1412468705 
0.1964803944 
0.1610991747 
0.1166259855 
0.1463402197 
0.1499517578 
0.1730177483 
0.1282292817 
0.1683589849 
0.1631839074 
0.1505453025 
0.1046946113 
0.1098067827 
0.1453084275 
0.1588859142 
0.1009883288 
0.1367796864 
0.1842836574 
0.1605565 
0.1439013482 
0.1365771665 
0.209469375 
0.1494760315 
0.1377692354 
0.1670372169 
0.2132551679 
0.105369722 
0.122771737 
0.1347243077 
0.160800202 
0.148921375 
0.1285450393 
0.2791767429 
0.1733092486 
0.2121086273 
0.1477927345 
0.1367199204 
0.1652554569 
0.1592270851 
0.1378125047 
0.1063836782 
0.1005064944 
0.1754717578 
0.1401234198 
0.1431575827 
0.1475805053 
0.1592173213 
0.1317728647 
0.1754791162 
0.1777829743 
0.1656351051 
0.1380793078 
0.2137133369 
0.1828573254 
0.1105438118 
0.1588460493 
0.1212239813 
0.1712855694 
0.1553451978 
0.2026827209 
0.1703909367 
0.1321341454 
0.1567653497 
0.1066163509 
0.1473889266 
0.1627753217 
0.1099960038 
0.2045286648 
0.172042914 
0.1403623341 
0.1428118817 
0.1699531644 
0.1378956249 
0.1167505172 
0.1888389659 
0.1796924518 
0.1406729307 
0.1333461114 
0.1634834988 
0.2287474749 
0.1422072021 
0.155264941 
0.2260369947 
0.1445817561 
0.2094989254 
0.1463081423 
0.1376711471 
0.2245518752 
0.1345312337 
0.210947383 
0.126335055 
0.1079893842 
0.1663396416 
0.1461066192 
0.1905418678 
0.1139693139 
0.1160999245 
0.09895944539 
0.2384459335 
0.1013145191 
0.1155534719 
0.1151531916 
0.132441709 
0.1836964608 
0.1229671593 
0.173543017 
0.1950718701 
0.1922996925 
0.1476075598 
0.1345495421 
0.2219656136 
0.2107037921 
0.1478403417 
0.1656177002 
0.1432561568 
0.1265023093 
0.154365953 
0.1498718045 
0.1226872326 
0.1948697159 
0.1356446182 
0.1118901604 
0.1068277918 
0.2058838793 
0.1542523204 
0.1168157581 
0.2262945424 
0.121821196 
0.1399626886 
0.1654592631 
0.1152147376 
0.1636920372 
0.1600269003 
0.171231163 
0.1667698635 
0.2414733077 
0.1402510036 
0.2214530656 
0.117416816 
0.1513086294 
0.1667251101 
0.1894780156 
0.1674163552 
0.1604397967 
0.1424132738 
0.1884232703 
0.2015787816 
0.2108556229 
0.1890278146 
0.2338479627 
0.2242145298 
0.1447914495 
0.1524877653 
0.2075274983 
0.1212843316 
0.1710659453 
0.1666117653 
0.2589977038 
0.1668723416 
0.1701190036 
0.1704842189 
0.1205878483 
0.2108306912 
0.1084837577 
0.08310527457 
0.1321967834 
0.144993275 
0.1223642017 
0.1157098186 
0.1405569304 
0.1256110443 
0.1694774385 
0.2308274004 
0.381301394 
0.5486006186 
0.300901817 
0.140643159 
0.3588252492 
0.125314045 
0.2331431924 
0.3580775528 
0.2246651051 
0.1836380351 
0.1372470589 
0.1892844541 
0.1501206551 
0.133068055 
0.1338481429 
0.129576339 
0.1391417955 
0.2317418656 
0.1293409773 
0.1859066481 
0.1787829901 
0.0979538808 
0.2337165403 
0.1286360308 
0.1389635136 
0.12028052 
0.1325970057 
0.1294673918 
0.1477916518 
0.1187348142 
0.1970171848 
0.1588496321 
0.1310203821 
0.156132426 
0.1510748634 
0.1820666266 
0.1902895735 
0.1918441951 
0.1828763848 
0.1366634416 
0.1502434191 
0.1511864228 
0.1320817522 
0.120650227 
0.1853718411 
0.1381875511 
0.1355844709 
0.2241507062 
0.1480656061 
0.1952568029 
0.2259421566 
0.07010010167 
0.07746477278 
0.1408640027 
0.05785317891 
0.1521739543 
0.1367608152 
0.1372127223 
0.1599720949 
0.1814795047 
0.270479158 
0.1508510308 
0.1432214334 
0.1812034331 
0.1580625725 
0.2601548688 
0.1308128495 
0.1507741651 
0.4995855959 
0.3720179397 
0.64865959 
0.3710368381 
0.1502661192 
0.1154018863 
0.1427517023 
0.1211984406 
0.1209253066 
0.1240846697 
0.1067243782 
0.197747631 
0.1612856277 
0.1022351747 
0.1387355833 
0.1985592603 
0.1340771636 
0.2246675486 
0.1975149493 
0.1481284808 
0.1196372396 
0.1945772467 
0.1235165483 
0.1713990773 
0.2012280085 
0.1904500625 
0.1537602831 
0.1495132848 
0.1627928268 
0.1101256738 
0.2354662221 
0.1963864128 
0.1506413792 
0.2121672517 
0.1302188446 
0.1534007273 
0.1496396786 
0.1560492099 
0.1494145881 
0.2157214628 
0.2482595848 
0.1594416849 
0.1087088531 
0.1487238292 
0.2293479898 
0.1580752887 
0.1243711698 
0.1721055692 
0.173734443 
0.1170414683 
0.1532842266 
0.1389831236 
0.1364414867 
0.1365816191 
0.2106523682 
0.1546846958 
0.1599360122 
0.1235305534 
0.1281088479 
0.1621509596 
0.1411058941 
0.1922009753 
0.1348006564 
0.1369546055 
0.2004436138 
0.1232122788 
0.2072684599 
0.1630710779 
0.208748352 
0.1076766375 
0.183277302 
0.09598754065 
0.1475264083 
0.1305183786 
0.2240567247 
0.1292613469 
0.1836205495 
0.1640665873 
0.138169304 
0.2620449137 
0.1303463208 
0.6292183559 
0.1726655715 
0.2522302046 
0.1605907245 
0.1170253771 
0.1890190229 
0.1249817955 
0.1349668782 
0.1277562466 
0.1016324386 
0.1596526625 
0.1363514569 
0.1488004541 
0.1477791244 
0.1416053113 
0.1949412641 
0.1123371275 
0.1459443335 
0.1421266367 
0.1431685933 
0.1050237042 
0.1821049809 
0.1277216413 
0.1605533468 
0.1290200068 
0.1235186175 
0.1215702996 
0.1377992584 
0.1130188722 
0.1636900305 
0.1599960901 
0.05817526195 
0.1730718185 
0.1661741 
0.1139380409 
0.1663883214 
0.1639097951 
0.1188071478 
0.1465204306 
0.1692656439 
0.145572389 
0.101886283 
0.2115546234 
0.137597381 
0.1723966517 
0.1828710764 
0.1327383512 
0.1516754689 
0.10947774 
0.1648846175 
0.1969375751 
0.1293318204 