# vtk DataFile Version 3.0
MOAB 5.5.0
ASCII
DATASET UNSTRUCTURED_GRID
POINTS 1705 double
82.25230654 176.2924732 0
84.65630287 178.7297902 0
187.4611102 54.91642295 0
185.4119627 59.76371164 0
178.8349382 56.44359545 0
183.7320119 53.94165662 0
182.6677669 58.63834954 0
175.2243617 59.09558184 0
55.85204371 172.3728071 0
61.22671107 168.9007018 0
55.61257357 183.0992033 0
53.13287398 179.8100599 0
51.90568942 182.9749789 0
53.61710931 181.9288116 0
58.1580643 174.9181587 0
63.50996504 176.5377358 0
186.8738722 63.55820286 0
177.9800657 64.1170925 0
174.9270477 65.90800788 0
176.3774237 56.25216649 0
172.0011545 59.31557307 0
167.2606051 62.60162014 0
84.18747373 176.664281 0
87.14851751 176.3468464 0
53.03804369 186.8649211 0
57.87550324 181.0572472 0
185.17404 49.74072094 0
185.645678 53.635536 0
166.2767091 52.17080349 0
170.2954505 56.13710952 0
182.9394019 50.05363565 0
182.5762873 55.68929885 0
164.5480875 57.51717807 0
172.1823389 53.71114979 0
189.4202127 53.3591524 0
192.0052431 56.02940945 0
192.5129908 60.19275654 0
190.5843923 57.96854822 0
188.612478 51.23754319 0
180.2249631 59.36190901 0
58.48213002 167.5207848 0
51.65396435 164.2189456 0
53.24742493 173.3684471 0
60.95461195 182.4149889 0
48.79877993 187.3979296 0
55.46119177 186.0585749 0
60.93243219 187.0101399 0
50.59694743 181.5429398 0
49.14573003 190.6562032 0
46.94224274 188.2915455 0
51.4780056 184.9517168 0
54.77358768 191.4886368 0
70.13501853 178.6950902 0
63.8113121 180.1022137 0
77.86048027 175.8627223 0
73.25668977 178.5448888 0
76.22931547 180.6023225 0
79.21363635 174.0896623 0
68.70219622 175.2125996 0
54.15959806 177.8723269 0
53.05771527 167.4596969 0
62.17075485 164.1263512 0
173.3831535 83.49929302 0
176.1880238 81.37998205 0
174.0310509 87.88230391 0
172.5453572 88.63673621 0
179.7874605 78.84829485 0
179.7499094 83.59082896 0
88.2679403 175.1749842 0
87.58873056 177.9557432 0
160.8098592 52.44698208 0
167.0816052 55.34486408 0
59.22978219 164.1991834 0
52.41556514 156.9741665 0
83.53776653 182.1112844 0
87.04631325 184.0689478 0
52.80628053 175.8370031 0
68.61953053 185.9895853 0
184.067071 86.02219353 0
186.1537399 79.33593178 0
180.5638878 67.20940753 0
187.0112044 72.13556812 0
178.0633722 61.16507219 0
194.1330765 56.4707981 0
174.2886557 23.97693136 0
176.3769481 25.94759516 0
190.9338802 33.31336599 0
193.3312804 34.81719052 0
188.7856574 40.38802579 0
188.388262 34.82101428 0
170.5367602 62.16342931 0
176.138161 51.7841303 0
159.6896741 40.4608671 0
162.8918532 36.22815413 0
164.6979835 34.07917532 0
167.2686508 36.97171995 0
184.5519077 67.32831896 0
192.8337607 52.69044617 0
188.884976 47.84717936 0
188.0016236 57.41889497 0
189.7027211 49.60055004 0
187.3797718 45.35859961 0
188.2016852 42.01148144 0
192.2293098 41.61018802 0
196.6294842 37.092814 0
191.2239818 38.15880479 0
190.959725 40.12492445 0
192.9555559 37.35832811 0
60.94436489 174.347806 0
51.26635821 171.8388975 0
51.25910079 179.7193545 0
56.00268601 168.9366241 0
50.23363358 178.2454144 0
52.19635087 189.0154401 0
36.64245963 190.1731305 0
38.51489131 187.5236207 0
33.39586816 187.7950419 0
35.35897617 187.3027544 0
26.58005934 177.0516699 0
25.70708315 172.6538223 0
36.18687323 163.7715323 0
31.01647883 160.9745357 0
35.42989299 193.3301835 0
40.06960389 188.5307556 0
43.44501753 188.6293408 0
45.26113965 187.4381926 0
48.1330671 183.791811 0
51.61957229 192.5999859 0
57.40763961 193.1640981 0
53.07449603 190.9660443 0
88.44309556 170.5070288 0
90.40013978 169.6361494 0
84.53677712 172.1944441 0
81.1707041 178.8085265 0
66.47070771 169.5336721 0
70.37608529 173.2780799 0
63.05848585 166.7862667 0
59.20274391 158.1913897 0
57.54734108 161.6489706 0
68.78907055 169.4248177 0
68.06508415 156.682501 0
68.60822149 152.5574623 0
180.9821942 75.65257785 0
172.1389247 65.12586584 0
181.2559485 81.4204208 0
175.4005461 77.21702884 0
171.9445322 90.6481158 0
168.8458369 88.64108696 0
173.7082597 86.22613791 0
173.9052359 81.69886412 0
166.9817228 88.82682853 0
169.7132217 87.06769894 0
150.129912 72.41162643 0
152.2113289 70.65105861 0
156.5943138 67.70989464 0
154.6475313 63.79696541 0
158.9446761 61.32649186 0
164.7817012 60.74220648 0
170.2499701 67.42032039 0
164.4096836 66.13811289 0
171.8722845 84.24834274 0
177.0129877 86.87322161 0
170.3482395 95.86532494 0
166.4960184 90.95548417 0
182.2401295 86.5694532 0
176.2570785 85.06283362 0
85.45708251 175.5645658 0
86.36612469 179.2389719 0
87.5912603 173.4804767 0
89.81488528 175.5286644 0
92.44732639 166.5352707 0
93.36643692 171.2978038 0
87.04119905 180.9846693 0
88.60817667 172.273503 0
157.1690123 33.97098941 0
160.1410198 29.20735286 0
161.3387541 56.08713926 0
154.9803873 55.67347056 0
152.2181447 68.09570456 0
151.4232294 62.68326919 0
146.6198301 72.03753333 0
154.2263665 73.80858722 0
63.12775746 151.3408002 0
66.50387615 149.8253861 0
44.6796256 164.8689036 0
41.3437499 164.0899025 0
37.97355507 160.3629868 0
40.93522012 160.8637558 0
40.57371977 209.3341576 0
38.62318551 206.0290108 0
64.80927747 194.4253796 0
55.14711922 193.4982613 0
78.84211784 178.5298266 0
83.28293343 184.4500738 0
85.83814832 185.729245 0
88.8548416 184.2673203 0
74.00956854 175.4722227 0
73.03020268 187.6698487 0
92.18624075 164.4160906 0
90.45164283 162.1501053 0
85.15188474 149.1226491 0
79.86056502 148.3503018 0
160.022453 91.27400961 0
161.4166143 89.79311757 0
160.8733939 93.87611823 0
168.4427298 92.22882827 0
184.9452448 84.18485152 0
188.5552456 86.60590607 0
188.6391888 81.22807489 0
177.0846025 79.09817105 0
175.435164 69.06357774 0
194.4741044 67.33626457 0
167.1690046 28.58547244 0
171.8307423 25.58736903 0
177.9869215 30.51097912 0
172.6821019 28.07133556 0
183.1298886 33.26743402 0
181.6614129 32.32236721 0
94.60401463 167.4190217 0
88.93205123 166.6400487 0
34.71621088 191.592282 0
29.9443033 190.6641922 0
91.89711216 157.2225637 0
93.50489367 162.3029802 0
189.0540881 37.1253155 0
185.1008137 32.60195984 0
186.3907098 42.44469489 0
185.8612612 38.4788956 0
189.9836515 46.40997125 0
184.8901732 41.39582304 0
186.4167755 51.28418197 0
182.7247134 46.88229674 0
181.9420037 48.50162337 0
191.3921316 63.43759452 0
169.8172725 50.6468856 0
171.4307628 51.52479951 0
167.9477805 50.55714448 0
163.2142964 50.70296029 0
172.8955309 50.04474384 0
178.4537431 51.22810001 0
165.9623401 45.54900264 0
165.8109454 47.51707058 0
164.1761295 44.27772763 0
159.4588833 37.35070863 0
163.0966714 40.60777125 0
169.5152887 30.55498995 0
203.4086278 36.92545235 0
207.4500609 34.338668 0
198.3653415 56.7872357 0
202.0918384 59.03195994 0
187.2492956 47.18435015 0
194.6570021 53.29835462 0
186.133267 44.2839304 0
192.4960868 44.89235969 0
197.8420155 33.25719174 0
200.0236443 36.90856199 0
53.53651461 161.5148104 0
62.13315084 171.3557788 0
49.36966225 174.9005286 0
50.92600624 169.3663303 0
41.4913403 191.3618919 0
41.74503219 187.59101 0
50.75408924 176.300796 0
50.09090131 189.0068106 0
49.34419142 185.4933547 0
45.00286299 185.3210197 0
35.58500721 185.3361209 0
38.65706768 185.7534901 0
37.15210321 184.6431771 0
28.12360909 187.617533 0
24.49376875 175.5366544 0
30.18493929 176.5602841 0
24.2440228 169.3408624 0
30.96799634 170.3328041 0
34.41702985 158.0304135 0
30.15172726 167.9017584 0
42.97130482 165.0289286 0
48.66397649 164.2228494 0
42.24912961 166.7554365 0
40.20809518 165.2278781 0
57.79621489 201.459494 0
58.18629814 195.2752559 0
35.79275423 204.3809049 0
38.69932912 204.5041138 0
34.97701827 200.1722879 0
37.86635625 196.2406471 0
38.91102491 197.8329435 0
36.7838958 188.3799413 0
44.46793399 191.7214319 0
43.57005305 193.3530406 0
48.6494035 193.7825813 0
43.28633474 190.4351304 0
47.90695091 180.2848633 0
53.97736957 194.7980552 0
57.03410807 191.1544736 0
72.56178637 173.6879044 0
82.33583846 172.2961837 0
64.61821986 189.1389297 0
85.170784 170.1240929 0
90.41778816 172.6675715 0
48.68642194 168.6196481 0
65.95106116 163.3189783 0
64.1447605 160.098851 0
66.64166363 165.2559072 0
67.25559388 161.8104386 0
64.05367337 155.0006737 0
74.09960539 150.48128 0
79.66301234 141.1790234 0
85.66471611 141.308646 0
81.65542891 152.0151033 0
182.2684714 51.9032173 0
178.6866616 73.34194473 0
172.5172691 80.07485063 0
175.8078715 74.65651952 0
169.9537492 90.76696215 0
168.9496098 85.27751399 0
158.248693 90.18631661 0
160.5263051 88.17943663 0
165.6377284 95.96540622 0
163.9206793 87.87980591 0
156.3777472 86.56112855 0
152.4152098 86.73525907 0
145.4759429 75.46627173 0
149.8346832 76.28901735 0
147.0444245 83.88242988 0
155.1987788 83.53854531 0
158.314349 65.94093362 0
157.1900693 69.7472029 0
162.0540206 62.41316333 0
162.3649815 65.10602522 0
180.1754339 54.88605714 0
166.5823205 69.04905931 0
191.3815769 53.92248566 0
184.7990285 75.84745351 0
170.3934605 98.10141285 0
170.898641 102.0187112 0
174.5381772 84.94273057 0
178.5289174 70.29007918 0
176.2235113 90.1925775 0
173.2263209 92.08999259 0
180.4773797 85.78792902 0
185.1860996 87.86268189 0
87.36040757 187.7227584 0
91.4746424 185.602787 0
80.7954027 186.3368695 0
88.89281068 181.3115483 0
96.56164953 165.7285065 0
99.44587562 166.8394308 0
90.37295954 177.1592818 0
90.64510791 167.7818848 0
159.1032621 43.74122484 0
167.3440093 48.49662703 0
164.2370211 30.43809326 0
149.219008 27.40594087 0
149.4941859 65.6769445 0
156.5977704 51.67564443 0
150.8784147 74.76274621 0
145.9772882 67.85820546 0
142.3664619 83.25496176 0
147.9422934 77.36663597 0
73.58474439 146.9284094 0
71.05410985 155.0906975 0
67.77767012 158.531643 0
56.22494438 154.9307443 0
47.82814311 166.7169184 0
45.75542412 166.6556173 0
21.20522087 176.4594094 0
19.92142082 169.2361433 0
13.77093143 157.5967053 0
22.31963377 153.6255132 0
56.20768375 199.9186913 0
61.59541568 204.6742696 0
76.7805237 184.6315629 0
89.53490422 187.4183521 0
76.00055667 174.8625521 0
74.05001026 192.8460541 0
82.27146021 190.695555 0
91.077648 188.1307182 0
94.98589289 192.5972517 0
92.37522259 189.2703029 0
97.21276525 170.6839403 0
89.02306163 164.7843571 0
100.4874364 173.1782565 0
104.11207 171.5864036 0
[...]
POINT_DATA 1705
SCALARS GLOBAL_ID int 1
LOOKUP_TABLE default
-1 
-1 
-1 
-1 
-1 
-1 
-1 
-1 
-1 
-1 
-1 
-1 
-1 
-1 
-1 
-1 
-1 
-1 
-1 
-1 
-1 
-1 
-1 
-1 
-1 
-1 
-1 
-1 
-1 
-1 
-1 
-1 
-1 
-1 
-1 
-1 
-1 
-1 
-1 
-1 
-1 
-1 
-1 
-1 
-1 
-1 
-1 
-1 
-1 
-1 
-1 
-1 
-1 
-1 
-1 
-1 
-1 
-1 
-1 
-1 
-1 
-1 
-1 
-1 
-1 
-1 
-1 
-1 
-1 
-1 
-1 
-1 
-1 
-1 
-1 
-1 
-1 
-1 
-1 
-1 
-1 
-1 
-1 
-1 
-1 
-1 
-1 
-1 
-1 
-1 
-1 
-1 
-1 
-1 
-1 
-1 
-1 
-1 
-1 
-1 
-1 
-1 
-1 
-1 
-1 
-1 
-1 
-1 
-1 
-1 
-1 
-1 
-1 
-1 
-1 
-1 
-1 
-1 
-1 
-1 
-1 
-1 
-1 
-1 
-1 
-1 
-1 
-1 
-1 
-1 
-1 
-1 
-1 
-1 
-1 
-1 
-1 
-1 
-1 
-1 
-1 
-1 
-1 
-1 
-1 
-1 
-1 
-1 
-1 
-1 
-1 
-1 
-1 
-1 
-1 
-1 
-1 
-1 
-1 
-1 
-1 
-1 
-1 
-1 
-1 
-1 
-1 
-1 
-1 
-1 
-1 
-1 
-1 
-1 
-1 
-1 
-1 
-1 
-1 
-1 
-1 
-1 
-1 
-1 
-1 
-1 
-1 
-1 
-1 
-1 
-1 
-1 
-1 
-1 
-1 
-1 
-1 
-1 
-1 
-1 
-1 
-1 
-1 
-1 
-1 
-1 
-1 
-1 
-1 
-1 
-1 
-1 
-1 
-1 
-1 
-1 
-1 
-1 
-1 
-1 
-1 
-1 
-1 
-1 
-1 
-1 
-1 
-1 
-1 
-1 
-1 
-1 
-1 
-1 
-1 
-1 
-1 
-1 
-1 
-1 
-1 
-1 
-1 
-1 
-1 
-1 
-1 
-1 
-1 
-1 
-1 
-1 
-1 
-1 
-1 
-1 
-1 
-1 
-1 
-1 
-1 
-1 
-1 
-1 
-1 
-1 
-1 
-1 
-1 
-1 
-1 
-1 
-1 
-1 
-1 
-1 
-1 
-1 
-1 
-1 
-1 
-1 
-1 
-1 
-1 
-1 
-1 
-1 
-1 
-1 
-1 
-1 
-1 
-1 
-1 
-1 
-1 
-1 
-1 
-1 
-1 
-1 
-1 
-1 
-1 
-1 
-1 
-1 
-1 
-1 
-1 
-1 
-1 
-1 
-1 
-1 
-1 
-1 
-1 
-1 
-1 
-1 
-1 
-1 
-1 
-1 
-1 
-1 
-1 
-1 
-1 
-1 
-1 
-1 
-1 
-1 
-1 
-1 
-1 
-1 
-1 
-1 
-1 
-1 
-1 
-1 
-1 
-1 
-1 
-1 
-1 
-1 
-1 
-1 
-1 
-1 
-1 
-1 
-1 
-1 
-1 
-1 
-1 
-1 
-1 
-1 
-1 
-1 
-1 
-1 
-1 
-1 
-1 
-1 
-1 
-1 
-1 
-1 
-1 
-1 
-1 
-1 
-1 
-1 
-1 
-1 
-1 
-1 
-1 
-1 
-1 
-1 
-1 
-1 
-1 
-1 
-1 
-1 
-1 
-1 
-1 
-1 
-1 
-1 
-1 
-1 
-1 
-1 
-1 
-1 
-1 
-1 
-1 
-1 
-1 
-1 
-1 
-1 
-1 
-1 
-1 
-1 
-1 
-1 
-1 
-1 
-1 
-1 
-1 
-1 
-1 
-1 
-1 
-1 
-1 
-1 
-1 
-1 
-1 
-1 
-1 
-1 
-1 
-1 
-1 
-1 
-1 
-1 
-1 
-1 
-1 
-1 
-1 
-1 
-1 
-1 
-1 
-1 
-1 
-1 
-1 
-1 
-1 
-1 
-1 
-1 
-1 
-1 
-1 
-1 
-1 
-1 
-1 
-1 
-1 
-1 
-1 
-1 
-1 
-1 
-1 
-1 
-1 
-1 
-1 
-1 
-1 
-1 
-1 
-1 
-1 
-1 
-1 
-1 
-1 
-1 
-1 
-1 
-1 
-1 
-1 
-1 
-1 
-1 
-1 
-1 
-1 
-1 
-1 
-1 
-1 
-1 
-1 
-1 
-1 
-1 
-1 
-1 
-1 
-1 
-1 
-1 
-1 
-1 
-1 
-1 
-1 
-1 
-1 
-1 
-1 
-1 
-1 
-1 
-1 
-1 
-1 
-1 
-1 
-1 
-1 
-1 
-1 
-1 
-1 
-1 
-1 
-1 
-1 
-1 
-1 
-1 
-1 
-1 
-1 
-1 
-1 
-1 
-1 
-1 
-1 
-1 
-1 
-1 
-1 
-1 
-1 
-1 
-1 
-1 
-1 
-1 
-1 
-1 
-1 
-1 
-1 
-1 
-1 
-1 
-1 
-1 
-1 
-1 
-1 
-1 
-1 
-1 
-1 
-1 
-1 
-1 
-1 
-1 
-1 
-1 
-1 
-1 
-1 
-1 
-1 
-1 
-1 
-1 
-1 
-1 
-1 
-1 
-1 
-1 
-1 
-1 
-1 
-1 
-1 
-1 
-1 
-1 
-1 
-1 
-1 
-1 
-1 
-1 
-1 
-1 
-1 
-1 
-1 
-1 
-1 
-1 
-1 
-1 
-1 
-1 
-1 
-1 
-1 
-1 
-1 
-1 
-1 
-1 
-1 
-1 
-1 
-1 
-1 
-1 
-1 
-1 
-1 
-1 
-1 
-1 
-1 
-1 
-1 
-1 
-1 
-1 
-1 
-1 
-1 
-1 
-1 
-1 
-1 
-1 
-1 
-1 
-1 
-1 
-1 
-1 
-1 
-1 
-1 
-1 
-1 
-1 
-1 
-1 
-1 
-1 
-1 
-1 
-1 
-1 
-1 
-1 
-1 
-1 
-1 
-1 
-1 
-1 
-1 
-1 
-1 
-1 
-1 
-1 
-1 
-1 
-1 
-1 
-1 
-1 
-1 
-1 
-1 
-1 
-1 
-1 
-1 
-1 
-1 
-1 
-1 
-1 
-1 
-1 
-1 
-1 
-1 
-1 
-1 
-1 
-1 
-1 
-1 
-1 
-1 
-1 
-1 
-1 
-1 
-1 
-1 
-1 
-1 
-1 
-1 
-1 
-1 
-1 
-1 
-1 
-1 
-1 
-1 
-1 
-1 
-1 
-1 
-1 
-1 
-1 
-1 
-1 
-1 
-1 
-1 
-1 
-1 
-1 
-1 
-1 
-1 
-1 
-1 
-1 
-1 
-1 
-1 
-1 
-1 
-1 
-1 
-1 
-1 
-1 
-1 
-1 
-1 
-1 
-1 
-1 
-1 
-1 
-1 
-1 
-1 
-1 
-1 
-1 
-1 
-1 
-1 
-1 
-1 
-1 
-1 
-1 
-1 
-1 
-1 
-1 
-1 
-1 
-1 
-1 
-1 
-1 
-1 
-1 
-1 
-1 
-1 
-1 
-1 
-1 
-1 
-1 
-1 
-1 
-1 
-1 
-1 
-1 
-1 
-1 
-1 
-1 
-1 
-1 
-1 
-1 
-1 
-1 
-1 
-1 
-1 
-1 
-1 
-1 
-1 
-1 
-1 
-1 
-1 
-1 
-1 
-1 
-1 
-1 
-1 
-1 
-1 
-1 
-1 
-1 
-1 
-1 
-1 
-1 
-1 
-1 
-1 
-1 
-1 
-1 
-1 
-1 
-1 
-1 
-1 
-1 
-1 
-1 
-1 
-1 
-1 
-1 
-1 
-1 
-1 
-1 
-1 
-1 
-1 
-1 
-1 
-1 
-1 
-1 
-1 
-1 
-1 
-1 
-1 
-1 
-1 
-1 
-1 
-1 
-1 
-1 
-1 
-1 
-1 
-1 
-1 
-1 
-1 
-1 
-1 
-1 
-1 
-1 
-1 
-1 
-1 
-1 
-1 
-1 
-1 
-1 
-1 
-1 
-1 
-1 
-1 
-1 
-1 
-1 
-1 
-1 
-1 
-1 
-1 
-1 
-1 
-1 
-1 
-1 
-1 
-1 
-1 
-1 
-1 
-1 
-1 
-1 
-1 
-1 
-1 
-1 
-1 
-1 
-1 
-1 
-1 
-1 
-1 
-1 
-1 
-1 
-1 
-1 
-1 
-1 
-1 
-1 
-1 
-1 
-1 
-1 
-1 
-1 
-1 
-1 
-1 
-1 
-1 
-1 
-1 
-1 
-1 
-1 
-1 
-1 
-1 
-1 
-1 
-1 
-1 
-1 
-1 
-1 
-1 
-1 
-1 
-1 
-1 
-1 
-1 
-1 
-1 
-1 
-1 
-1 
-1 
-1 
-1 
-1 
-1 
-1 
-1 
-1 
-1 
-1 
-1 
-1 
-1 
-1 
-1 
-1 
-1 
-1 
-1 
-1 
-1 
-1 
-1 
-1 
-1 
-1 
-1 
-1 
-1 
-1 
-1 
-1 
-1 
-1 
-1 
-1 
-1 
-1 
-1 
-1 
-1 
-1 
-1 
-1 
-1 
-1 
-1 
-1 
-1 
-1 
-1 
-1 
-1 
-1 
-1 
-1 
-1 
-1 
-1 
-1 
-1 
-1 
-1 
-1 
-1 
-1 
-1 
-1 
-1 
-1 
-1 
-1 
-1 
-1 
-1 
-1 
-1 
-1 
-1 
-1 
-1 
-1 
-1 
-1 
-1 
-1 
-1 
-1 
-1 
-1 
-1 
-1 
-1 
-1 
-1 
-1 
-1 
-1 
-1 
-1 
-1 
-1 
-1 
-1 
-1 
-1 
-1 
-1 
-1 
-1 
-1 
-1 
-1 
-1 
-1 
-1 
-1 
-1 
-1 
-1 
-1 
-1 
-1 
-1 
-1 
-1 
-1 
-1 
-1 
-1 
-1 
-1 
-1 
-1 
-1 
-1 
-1 
-1 
-1 
-1 
-1 
-1 
-1 
-1 
-1 
-1 
-1 
-1 
-1 
-1 
-1 
-1 
-1 
-1 
-1 
-1 
-1 
-1 
-1 
-1 
-1 
-1 
-1 
-1 
-1 
-1 
-1 
-1 
-1 
-1 
-1 
-1 
-1 
-1 
-1 
-1 
-1 
-1 
-1 
-1 
-1 
-1 
-1 
-1 
-1 
-1 
-1 
-1 
-1 
-1 
-1 
-1 
-1 
-1 
-1 
-1 
-1 
-1 
-1 
-1 
-1 
-1 
-1 
-1 
-1 
-1 
-1 
-1 
-1 
-1 
-1 
-1 
-1 
-1 
-1 
-1 
-1 
-1 
-1 
-1 
-1 
-1 
-1 
-1 
-1 
-1 
-1 
-1 
-1 
-1 
-1 
-1 
-1 
-1 
-1 
-1 
-1 
-1 
-1 
-1 
-1 
-1 
-1 
-1 
-1 
-1 
-1 
-1 
-1 
-1 
-1 
-1 
-1 
-1 
-1 
-1 
-1 
-1 
-1 
-1 
-1 
-1 
-1 
-1 
-1 
-1 
-1 
-1 
-1 
-1 
-1 
-1 
-1 
-1 
-1 
-1 
-1 
-1 
-1 
-1 
-1 
-1 
-1 
-1 
-1 
-1 
-1 
-1 
-1 
-1 
-1 
-1 
-1 
-1 
-1 
-1 
-1 
-1 
-1 
-1 
-1 
-1 
-1 
-1 
-1 
-1 
-1 
-1 
-1 
-1 
-1 
-1 
-1 
-1 
-1 
-1 
-1 
-1 
-1 
-1 
-1 
-1 
-1 
-1 
-1 
-1 
-1 
-1 
-1 
-1 
-1 
-1 
-1 
-1 
-1 
-1 
-1 
-1 
-1 
-1 
-1 
-1 
-1 
-1 
-1 
-1 
-1 
-1 
-1 
-1 
-1 
-1 
-1 
-1 
-1 
-1 
-1 
-1 
-1 
-1 
-1 
-1 
-1 
-1 
-1 
-1 
-1 
-1 
-1 
-1 
-1 
-1 
-1 
-1 
-1 
-1 
-1 
-1 
-1 
-1 
-1 
-1 
-1 
-1 
-1 
-1 
-1 
-1 
-1 
-1 
-1 
-1 
-1 
-1 
-1 
-1 
-1 
-1 
-1 
-1 
-1 
-1 
-1 
-1 
-1 
-1 
-1 
-1 
-1 
-1 
-1 
-1 
-1 
-1 
-1 
-1 
-1 
-1 
-1 
-1 
-1 
-1 
-1 
-1 
-1 
-1 
-1 
-1 
-1 
-1 
-1 
-1 
-1 
-1 
-1 
-1 
-1 
-1 
-1 
-1 
-1 
-1 
-1 
-1 
-1 
-1 
-1 
-1 
-1 
-1 
-1 
-1 
-1 
-1 
-1 
-1 
-1 
-1 
-1 
-1 
-1 
-1 
-1 
-1 
-1 
-1 
-1 
-1 
-1 
-1 
-1 
-1 
-1 
-1 
-1 
-1 
-1 
-1 
-1 
-1 
-1 
-1 
-1 
-1 
-1 
-1 
-1 
-1 
-1 
-1 
-1 
-1 
-1 
-1 
-1 
-1 
-1 
-1 
-1 
-1 
-1 
-1 
-1 
-1 
-1 
-1 
-1 
-1 
-1 
-1 
-1 
-1 
-1 
-1 
-1 
-1 
-1 
-1 
-1 
-1 
-1 
-1 
-1 
-1 
-1 
-1 
-1 
-1 
-1 
-1 
-1 
-1 
-1 
-1 
-1 
-1 
-1 
-1 
-1 
-1 
-1 
-1 
-1 
-1 
-1 
-1 
-1 
-1 
-1 
-1 
-1 
-1 
-1 
-1 
-1 
-1 
-1 
-1 
-1 
-1 
-1 
-1 
-1 
-1 
-1 
-1 
-1 
-1 
-1 
-1 
-1 
-1 
-1 
-1 
-1 
-1 
-1 
-1 
-1 
-1 
-1 
-1 
-1 
-1 
-1 
-1 
-1 
-1 
-1 
-1 
-1 
-1 
-1 
-1 
-1 
-1 
-1 
-1 
-1 
-1 
-1 
-1 
-1 
-1 
-1 
-1 
-1 
-1 
-1 
-1 
-1 
-1 
-1 
-1 
-1 
-1 
-1 
-1 
-1 
-1 
-1 
-1 
-1 
-1 
-1 
-1 
-1 
-1 
-1 
-1 
-1 
-1 
-1 
-1 
-1 
-1 
-1 
-1 
-1 
-1 
-1 
-1 
-1 
-1 
-1 
-1 
-1 
-1 
-1 
-1 
-1 
-1 
-1 
-1 
-1 
-1 
-1 
-1 
-1 
-1 
-1 
-1 
-1 
-1 
-1 
-1 
-1 
-1 
-1 
-1 
-1 
-1 
-1 
-1 
-1 
-1 
-1 
-1 
-1 
-1 
-1 
-1 
-1 
-1 
-1 
-1 
-1 
-1 
-1 
-1 
-1 
VECTORS G_average double
-1.804430182 -3.162050554 0 
-1.68002806 -3.095796732 0 
-3.787281512 -0.7407035944 0 
-3.8631056 -0.9858207742 0 
-4.323948965 -1.038557562 0 
-4.114780241 -0.6893177048 0 
-4.038050813 -1.021645343 0 
-4.435009484 -1.293018689 0 
-1.368330825 -4.740907798 0 
-1.57515986 -4.64801446 0 
-0.8167770776 -4.081965543 0 
-0.7429738746 -4.471685205 0 
-0.5317024288 -4.160825079 0 
-0.7178859175 -4.212606533 0 
-1.278154982 -4.509348514 0 
-1.480316117 -4.243270209 0 
-3.654250239 -1.07558639 0 
-4.074662611 -1.421325933 0 
-4.177766876 -1.637530821 0 
-4.545413165 -1.152683793 0 
-4.589320429 -1.460597737 0 
-4.643644668 -1.656348821 0 
-1.725257198 -3.083123746 0 
-1.666824602 -3.009395614 0 
-0.6367936534 -3.863870761 0 
-1.021761413 -4.13596411 0 
-3.959657213 -0.3375731463 0 
-3.952257535 -0.6786179041 0 
-4.947236408 -1.614209864 0 
-4.701176193 -1.433316926 0 
-4.174129245 -0.3289742817 0 
-4.143005453 -0.8316339296 0 
-4.86150265 -1.664700852 0 
-4.792148815 -1.370906522 0 
-3.637278452 -0.6700324278 0 
-3.59801037 -0.7885697066 0 
-3.555414075 -0.8572918741 0 
-3.65162777 -0.827408834 0 
-3.635987627 -0.5225034237 0 
-4.139233053 -1.128032896 0 
-1.551330172 -4.705206473 0 
-1.602003918 -4.929016066 0 
-1.3131886 -4.862730035 0 
-1.101916613 -3.971525094 0 
-0.3470573691 -3.743198796 0 
-0.7622786904 -3.910343577 0 
-0.9570615176 -3.716110132 0 
-0.3876856529 -4.353712959 0 
-0.469865756 -3.411346312 0 
-0.2641411293 -3.613711734 0 
-0.5118120116 -4.000017259 0 
-0.7358274553 -3.59774743 0 
-1.624764471 -3.775626858 0 
-1.305677095 -3.948386075 0 
-1.915507965 -3.375869875 0 
-1.710533757 -3.614297843 0 
-1.643792583 -3.393149047 0 
-2.074936905 -3.185137142 0 
-1.720652106 -4.054398984 0 
-0.9652733238 -4.576058402 0 
-1.592303979 -4.906837055 0 
-1.621833945 -4.856709031 0 
-3.009406864 -1.793479443 0 
-3.176756255 -1.871924406 0 
-3.012831471 -1.748195713 0 
-3.076029641 -1.811066933 0 
-3.269962266 -1.704834358 0 
-3.117727314 -1.687866344 0 
-1.693520678 -2.93739666 0 
-1.617597819 -2.998925284 0 
-4.958423287 -1.602063356 0 
-4.90397165 -1.570462723 0 
-1.628282041 -4.894398739 0 
-1.605293685 -5.152124788 0 
-1.617497324 -3.131160125 0 
-1.622932721 -3.105907113 0 
-1.083093273 -4.817545153 0 
-1.254836708 -3.495642465 0 
-3.124018546 -1.637488331 0 
-3.184403475 -1.519647198 0 
-3.8440311 -1.417792474 0 
-3.416702535 -1.310505199 0 
-4.227798163 -1.284650526 0 
-3.605114564 -0.7894482814 0 
-5.390731689 -0.5468594968 0 
-5.4596938 -0.5742353793 0 
-4.4277254 -0.06512935709 0 
-4.308519544 0.112898978 0 
-3.790400408 -0.2336874839 0 
-4.451516251 -0.3872556975 0 
-4.55605248 -1.583255154 0 
-4.911149642 -1.005126914 0 
-5.089676619 -1.212142773 0 
-5.006988511 -0.808869632 0 
-5.071605874 -0.660418527 0 
-4.522513871 -0.4881375774 0 
-3.656438009 -1.266793946 0 
-3.485956208 -0.7587698028 0 
-3.483811469 -0.3357440932 0 
-3.720274655 -0.7998434281 0 
-3.475346656 -0.4428823307 0 
-3.644034392 -0.1858141667 0 
-3.698827565 -0.2290019661 0 
-3.602830893 0.1110966876 0 
-4.201424695 0.4274087079 0 
-3.945103395 -0.01470781746 0 
-3.718069993 -0.0006013846072 0 
-4.058723586 0.1200309786 0 
-1.445589929 -4.368185349 0 
-1.454716594 -4.956906857 0 
-0.6066804201 -4.585821482 0 
-1.505602869 -4.720917992 0 
-0.5744088671 -4.904177897 0 
-0.6162758509 -3.612117745 0 
-0.145037495 -4.085418882 0 
-0.4507789656 -3.971487164 0 
-0.4240828619 -4.643577274 0 
-0.5043611519 -4.4148598 0 
-0.6049863938 -5.474370114 0 
-0.543634316 -5.526641984 0 
-0.8139879745 -4.951040447 0 
-0.7436816244 -5.366185931 0 
0.1174574209 -4.251591924 0 
-0.2738740847 -3.828561713 0 
-0.1804040516 -3.583481207 0 
-0.1982362855 -3.663669857 0 
-0.1275816773 -3.99384113 0 
-0.7451952467 -3.420800871 0 
-0.821531304 -3.597226419 0 
-0.6983406219 -3.576132667 0 
-1.808816486 -3.149608696 0 
-1.999545233 -3.22358133 0 
-1.728675526 -3.003441959 0 
-1.710694745 -3.183400506 0 
-1.790470909 -4.551315996 0 
-1.949527477 -4.068576563 0 
-1.636969736 -4.745826916 0 
-1.694230205 -4.967372858 0 
-1.633910317 -4.960819824 0 
-1.950360436 -4.526690269 0 
-1.628162821 -4.735127159 0 
-1.877693662 -4.734866246 0 
-3.384978009 -1.603519848 0 
-4.373805141 -1.70198508 0 
-3.174315319 -1.687254493 0 
-3.389872037 -1.980713467 0 
-3.011093137 -1.960305232 0 
-3.376896308 -1.820783021 0 
-3.043886112 -1.766359632 0 
-3.04019725 -1.903513593 0 
-3.694481452 -1.843752728 0 
-3.229329325 -1.692210573 0 
-4.594185065 -2.095760635 0 
-4.553305596 -1.890463458 0 
-4.784176184 -1.666670664 0 
-4.902403296 -1.7984084 0 
-4.94007548 -1.751970917 0 
-4.858229998 -1.703490031 0 
-4.502194752 -1.856423405 0 
-4.855418174 -1.695272685 0 
-2.988242089 -1.747764539 0 
-3.005505514 -1.655313941 0 
-2.885971985 -2.609020786 0 
-3.724318692 -2.235395351 0 
-3.101701878 -1.637584173 0 
-3.068203252 -1.748179138 0 
-1.736790754 -3.054436832 0 
-1.614822315 -3.083325903 0 
-1.772269239 -3.063877303 0 
-1.713796872 -2.870511471 0 
-2.374973986 -3.56901907 0 
-2.274467689 -2.954902337 0 
-1.573834939 -3.097696972 0 
-1.814209352 -3.103717011 0 
-5.458407411 -0.9863068244 0 
-5.482156547 -0.7325612962 0 
-4.964014596 -1.665695609 0 
-5.063597165 -1.700153918 0 
-4.742576694 -1.908311537 0 
-4.996260779 -1.883010401 0 
-4.805624095 -2.293090151 0 
-4.142995234 -1.825129343 0 
-1.871884671 -5.042264306 0 
-2.007363851 -4.904793176 0 
-1.487192897 -4.702790919 0 
-1.208231662 -4.699914436 0 
-1.099238958 -5.12489352 0 
-1.216434415 -4.971096548 0 
-0.1214465504 -3.161942176 0 
-0.1098246166 -3.839419913 0 
-0.8884271569 -3.356222285 0 
-0.8037368906 -3.554664415 0 
-1.777155894 -3.311566208 0 
-1.590889421 -3.11590804 0 
-1.605013692 -3.015255513 0 
-1.641827656 -3.186423312 0 
-1.950550979 -3.685960335 0 
-1.345992702 -3.336894904 0 
-2.472963169 -3.914034057 0 
-2.594855403 -4.348839041 0 
-2.913073765 -4.674993741 0 
-2.682360964 -4.518222092 0 
-4.426932868 -2.803774874 0 
-4.537562131 -2.558336165 0 
-4.256698675 -2.99401617 0 
-3.32620646 -2.295104228 0 
-3.114057294 -1.62360297 0 
-2.926017123 -1.642361034 0 
-3.023463605 -1.478021802 0 
-3.284456779 -1.852836856 0 
-3.967641925 -1.730609749 0 
-3.272914646 -0.9554804696 0 
-5.352367188 -0.486084614 0 
-5.460128525 -0.4656800616 0 
-5.639786369 -0.6564270677 0 
-5.482884496 -0.4102847028 0 
-5.000909201 -0.9869373086 0 
-5.236634404 -0.9619603579 0 
-2.621692135 -3.320793991 0 
-1.923238214 -3.772591392 0 
-0.0009880876511 -4.267216752 0 
-0.08176615944 -4.734239006 0 
-3.061466872 -4.595439003 0 
-2.794647314 -4.042110473 0 
-4.12809486 -0.2888895219 0 
-4.787456181 -0.6812053563 0 
-3.549895206 -0.2904165498 0 
-3.813178588 -0.6544263532 0 
-3.379771988 -0.2643437873 0 
-3.424547304 -0.3963109847 0 
-3.860259749 -0.4767403892 0 
-4.008702187 0.129197123 0 
-4.270086608 -0.0790789503 0 
-3.519223865 -0.9379754635 0 
-4.96480702 -1.591463628 0 
-4.956613106 -1.502475367 0 
-4.98254927 -1.607982869 0 
-4.924413312 -1.613600545 0 
-5.144407169 -1.429119079 0 
-4.770337942 -0.679404432 0 
-4.701703338 -1.526519758 0 
-4.834328491 -1.657668518 0 
-4.786221977 -1.424907366 0 
-5.209676222 -1.031726172 0 
-4.799393778 -1.165324055 0 
-5.320314356 -0.3228528218 0 
-4.218912422 0.2434226343 0 
-3.741606941 0.466016597 0 
-3.634148512 -0.692926812 0 
-3.489355174 -0.3814703839 0 
-3.708878755 -0.2863935385 0 
-3.524013098 -0.8822614683 0 
-3.601966678 -0.1320725029 0 
-3.259835219 -0.07985181742 0 
-4.391423595 0.3986358094 0 
-4.342084143 0.4768279015 0 
-1.61723237 -4.983451938 0 
-1.571703952 -4.51627259 0 
-1.145071836 -5.370480041 0 
-1.612672046 -4.921835829 0 
0.03072351098 -3.625702852 0 
-0.2438701081 -3.687793427 0 
-0.9074315633 -5.057907178 0 
-0.4654306687 -3.56046827 0 
-0.3304565025 -3.897367753 0 
-0.1032004299 -3.604307639 0 
-0.8152509282 -4.35993703 0 
-0.6587670344 -3.819421482 0 
-0.9742570854 -4.038873924 0 
-0.3353878144 -5.12314334 0 
-0.5794268961 -5.382642182 0 
-0.5020631584 -5.662496005 0 
-0.5535744432 -5.427684504 0 
-0.2347492162 -5.341867523 0 
-0.9556069089 -5.296201825 0 
-0.4125164103 -5.270320486 0 
-1.347996736 -4.607181367 0 
-1.598448394 -4.898872968 0 
-1.372570564 -4.368161728 0 
-1.058807488 -4.538511173 0 
-0.4283664196 -3.59781626 0 
-0.7722979762 -3.535474008 0 
0.3082286618 -3.987315303 0 
-0.08709457722 -4.118174458 0 
0.4367184369 -4.322624634 0 
0.4364803868 -4.164537898 0 
0.6034909584 -4.208012019 0 
-0.3431923508 -4.222170684 0 
-0.05605378939 -3.324841607 0 
0.1914661566 -3.311064555 0 
-0.5701864517 -3.072314616 0 
-0.1110456651 -3.484509065 0 
0.1018508252 -4.668216491 0 
-0.8574820936 -3.561638082 0 
-0.8318500494 -3.591377839 0 
-2.022769221 -3.875642989 0 
-1.844784394 -2.93979096 0 
-1.019263654 -3.538871493 0 
-1.569812524 -3.04810239 0 
-1.896374718 -2.986317455 0 
-1.691023501 -4.901178146 0 
-1.657911683 -4.859814878 0 
-1.681711314 -4.915212777 0 
-1.755698849 -4.856627359 0 
-1.629184013 -4.893464746 0 
-1.784640581 -4.881563805 0 
-2.185640612 -4.376928132 0 
-2.685275519 -4.876840822 0 
-2.742098752 -4.91893274 0 
-2.958317153 -4.287659257 0 
-4.259049631 -0.5117640152 0 
-3.593318083 -1.699115286 0 
-2.994533464 -2.098652962 0 
-3.580261939 -1.898648752 0 
-3.247990902 -2.03249623 0 
-3.143490636 -1.434072226 0 
-4.615414936 -2.903680815 0 
-4.799939879 -2.59798798 0 
-3.463373499 -2.872087513 0 
-4.423705605 -1.882532688 0 
-4.818512034 -3.162965628 0 
-4.713452759 -3.058933849 0 
-4.790499607 -2.49800285 0 
-4.342330839 -2.438689178 0 
-4.734863446 -2.758845576 0 
-4.433943143 -3.466127554 0 
-4.923032506 -1.671817386 0 
-4.699814329 -1.522513628 0 
-4.905404567 -1.691481872 0 
-4.921899954 -1.692845329 0 
-4.32608151 -0.8643821875 0 
-4.822368816 -1.905867058 0 
-3.553960932 -0.7374765428 0 
-3.338283934 -1.468792333 0 
-2.777465323 -2.888277999 0 
-2.646133447 -3.209022554 0 
-3.060263979 -1.781356959 0 
-3.767985026 -1.656255559 0 
-2.846329498 -1.625947047 0 
-2.79676313 -1.981297926 0 
-3.076834055 -1.652759282 0 
-3.103028399 -1.669735261 0 
-1.697318617 -2.960731475 0 
-1.840088825 -3.315002956 0 
-1.514742282 -3.080953938 0 
-1.509345638 -3.110044913 0 
-2.901062105 -3.432305712 0 
-3.15527795 -3.174082798 0 
-1.559338931 -2.852985981 0 
-2.117992771 -3.455914377 0 
-5.036871879 -1.411801741 0 
-4.943277079 -1.704414165 0 
-5.279851201 -0.6065493196 0 
-6.049405296 -1.030079617 0 
-4.981877666 -1.980506862 0 
-5.073877215 -1.63114427 0 
-4.355010196 -2.234196162 0 
-4.984313723 -2.176155303 0 
-4.881005263 -2.698846379 0 
-4.556090727 -2.495944456 0 
-2.324006816 -4.805421209 0 
-1.617773149 -4.468186907 0 
-1.595310762 -4.853194401 0 
-1.760288947 -5.033063267 0 
-1.646851424 -4.870547204 0 
-1.711841031 -4.756388247 0 
-0.6295248015 -5.354841807 0 
-0.5675685983 -5.407581822 0 
-0.4921625903 -5.869841968 0 
-0.7597133816 -5.951159165 0 
-0.5884829362 -3.732434117 0 
-0.3665488904 -3.111713581 0 
-1.501032358 -3.271854583 0 
-1.777482933 -3.020859261 0 
-2.010380033 -3.486154863 0 
-1.150761628 -3.102657504 0 
-1.429138937 -2.985639733 0 
-1.938719588 -2.986961043 0 
-1.946928663 -2.292335195 0 
-2.090680121 -2.810043599 0 
-2.749942549 -2.814775268 0 
-2.064020918 -4.05728629 0 
-3.14733675 -2.486604476 0 
-3.267005544 -2.606986302 0 
-2.886189929 -4.997036785 0 
-3.037362087 -4.727399917 0 
-4.834676869 -2.898063093 0 
-4.38036727 -3.302053966 0 
-3.208564748 -3.182169719 0 
-3.774700922 -2.756886193 0 
-3.282031411 -2.026431606 0 
-2.65690888 -2.496785011 0 
-2.099723804 -2.998987202 0 
-2.377415007 -2.968947992 0 
-2.802619161 -1.641573865 0 
-2.86684644 -1.931347875 0 
-2.993193058 -1.576231327 0 
-4.085592729 -1.947159014 0 
-4.351828328 -1.99095834 0 
-3.494908791 -0.7019928508 0 
-3.630290508 0.1958190012 0 
-4.1151798 0.6801052927 0 
-5.429870095 -0.6826908959 0 
-5.337596058 -0.6377358828 0 
-5.430367272 -0.3417301098 0 
-5.373150008 -0.5838272801 0 
-5.70463313 -0.2277285541 0 
-5.42127179 -0.4945878298 0 
-5.634403299 -0.4695512319 0 
-5.277892544 -0.7264396341 0 
-4.37482341 -0.9326657498 0 
-5.003858608 -0.633614571 0 
-2.1734795 -2.637612691 0 
-1.608891152 -3.550911238 0 
-2.754935317 -4.661168634 0 
-2.993245304 -3.876596997 0 
-2.842972021 -4.503625462 0 
-2.489486434 -4.667563149 0 
-0.6207969855 -5.376665104 0 
-0.6751825295 -5.212112054 0 
0.324201389 -3.940086392 0 
0.4040182309 -4.543202412 0 
-0.6477489482 -5.382429009 0 
-0.6299490693 -5.460580064 0 
-3.079210589 -4.676834903 0 
-3.195290048 -4.66479558 0 
-4.901619728 -2.594976957 0 
-4.98259266 -2.865253716 0 
-4.331673143 0.2953877329 0 
-4.863379618 0.258178786 0 
-5.422171507 -0.6253284805 0 
-5.360337552 -0.4319037903 0 
-3.441909619 -0.0009239479356 0 
-4.105405928 -0.9452166691 0 
-3.850642327 -0.2211557963 0 
-3.619781382 -0.001926731279 0 
-3.826008225 -0.01154623402 0 
-3.344153322 -0.563887658 0 
-4.586611986 0.663901893 0 
-4.755267943 -1.169466606 0 
-4.935943371 -1.831126478 0 
-4.647618753 -1.75338001 0 
-4.981844875 -1.802434083 0 
-5.229090053 -1.14706997 0 
-5.214663038 -1.759975176 0 
-5.227050063 -1.535840813 0 
-4.794012482 -1.961459015 0 
-4.69626398 -1.287146732 0 