# vtk DataFile Version 3.0
MOAB 5.5.0
ASCII
DATASET UNSTRUCTURED_GRID
POINTS 1715 double
82.25230654 176.2924732 0
84.65630287 178.7297902 0
187.4611102 54.91642295 0
185.4119627 59.76371164 0
178.8349382 56.44359545 0
183.7320119 53.94165662 0
182.6677669 58.63834954 0
175.2243617 59.09558184 0
55.85204371 172.3728071 0
61.22671107 168.9007018 0
55.61257357 183.0992033 0
53.13287398 179.8100599 0
51.90568942 182.9749789 0
53.61710931 181.9288116 0
58.1580643 174.9181587 0
63.50996504 176.5377358 0
186.8738722 63.55820286 0
177.9800657 64.1170925 0
174.9270477 65.90800788 0
176.3774237 56.25216649 0
172.0011545 59.31557307 0
167.2606051 62.60162014 0
84.18747373 176.664281 0
87.14851751 176.3468464 0
53.03804369 186.8649211 0
57.87550324 181.0572472 0
185.17404 49.74072094 0
185.645678 53.635536 0
166.2767091 52.17080349 0
170.2954505 56.13710952 0
182.9394019 50.05363565 0
182.5762873 55.68929885 0
164.5480875 57.51717807 0
172.1823389 53.71114979 0
189.4202127 53.3591524 0
192.0052431 56.02940945 0
192.5129908 60.19275654 0
190.5843923 57.96854822 0
188.612478 51.23754319 0
180.2249631 59.36190901 0
58.48213002 167.5207848 0
51.65396435 164.2189456 0
53.24742493 173.3684471 0
60.95461195 182.4149889 0
48.79877993 187.3979296 0
55.46119177 186.0585749 0
60.93243219 187.0101399 0
50.59694743 181.5429398 0
49.14573003 190.6562032 0
46.94224274 188.2915455 0
51.4780056 184.9517168 0
54.77358768 191.4886368 0
70.13501853 178.6950902 0
63.8113121 180.1022137 0
77.86048027 175.8627223 0
73.25668977 178.5448888 0
76.22931547 180.6023225 0
79.21363635 174.0896623 0
68.70219622 175.2125996 0
54.15959806 177.8723269 0
53.05771527 167.4596969 0
62.17075485 164.1263512 0
173.3831535 83.49929302 0
176.1880238 81.37998205 0
174.0310509 87.88230391 0
172.5453572 88.63673621 0
179.7874605 78.84829485 0
179.7499094 83.59082896 0
88.2679403 175.1749842 0
87.58873056 177.9557432 0
160.8098592 52.44698208 0
167.0816052 55.34486408 0
59.22978219 164.1991834 0
52.41556514 156.9741665 0
83.53776653 182.1112844 0
87.04631325 184.0689478 0
52.80628053 175.8370031 0
68.61953053 185.9895853 0
184.067071 86.02219353 0
186.1537399 79.33593178 0
180.5638878 67.20940753 0
187.0112044 72.13556812 0
178.0633722 61.16507219 0
194.1330765 56.4707981 0
174.2886557 23.97693136 0
176.3769481 25.94759516 0
190.9338802 33.31336599 0
193.3312804 34.81719052 0
188.7856574 40.38802579 0
188.388262 34.82101428 0
170.5367602 62.16342931 0
176.138161 51.7841303 0
159.6896741 40.4608671 0
162.8918532 36.22815413 0
164.6979835 34.07917532 0
167.2686508 36.97171995 0
184.5519077 67.32831896 0
192.8337607 52.69044617 0
188.884976 47.84717936 0
188.0016236 57.41889497 0
189.7027211 49.60055004 0
187.3797718 45.35859961 0
188.2016852 42.01148144 0
192.2293098 41.61018802 0
196.6294842 37.092814 0
191.2239818 38.15880479 0
190.959725 40.12492445 0
192.9555559 37.35832811 0
60.94436489 174.347806 0
51.26635821 171.8388975 0
51.25910079 179.7193545 0
56.00268601 168.9366241 0
50.23363358 178.2454144 0
52.19635087 189.0154401 0
36.64245963 190.1731305 0
38.51489131 187.5236207 0
33.39586816 187.7950419 0
35.35897617 187.3027544 0
26.58005934 177.0516699 0
25.70708315 172.6538223 0
36.18687323 163.7715323 0
31.01647883 160.9745357 0
35.42989299 193.3301835 0
40.06960389 188.5307556 0
43.44501753 188.6293408 0
45.26113965 187.4381926 0
48.1330671 183.791811 0
51.61957229 192.5999859 0
57.40763961 193.1640981 0
53.07449603 190.9660443 0
88.44309556 170.5070288 0
90.40013978 169.6361494 0
84.53677712 172.1944441 0
81.1707041 178.8085265 0
66.47070771 169.5336721 0
70.37608529 173.2780799 0
63.05848585 166.7862667 0
59.20274391 158.1913897 0
57.54734108 161.6489706 0
68.78907055 169.4248177 0
68.06508415 156.682501 0
68.60822149 152.5574623 0
180.9821942 75.65257785 0
172.1389247 65.12586584 0
181.2559485 81.4204208 0
175.4005461 77.21702884 0
171.9445322 90.6481158 0
168.8458369 88.64108696 0
173.7082597 86.22613791 0
173.9052359 81.69886412 0
166.9817228 88.82682853 0
169.7132217 87.06769894 0
150.129912 72.41162643 0
152.2113289 70.65105861 0
156.5943138 67.70989464 0
154.6475313 63.79696541 0
158.9446761 61.32649186 0
164.7817012 60.74220648 0
170.2499701 67.42032039 0
164.4096836 66.13811289 0
171.8722845 84.24834274 0
177.0129877 86.87322161 0
170.3482395 95.86532494 0
166.4960184 90.95548417 0
182.2401295 86.5694532 0
176.2570785 85.06283362 0
85.45708251 175.5645658 0
86.36612469 179.2389719 0
87.5912603 173.4804767 0
89.81488528 175.5286644 0
92.44732639 166.5352707 0
93.36643692 171.2978038 0
87.04119905 180.9846693 0
88.60817667 172.273503 0
157.1690123 33.97098941 0
160.1410198 29.20735286 0
161.3387541 56.08713926 0
154.9803873 55.67347056 0
152.2181447 68.09570456 0
151.4232294 62.68326919 0
146.6198301 72.03753333 0
154.2263665 73.80858722 0
63.12775746 151.3408002 0
66.50387615 149.8253861 0
44.6796256 164.8689036 0
41.3437499 164.0899025 0
37.97355507 160.3629868 0
40.93522012 160.8637558 0
40.57371977 209.3341576 0
38.62318551 206.0290108 0
64.80927747 194.4253796 0
55.14711922 193.4982613 0
78.84211784 178.5298266 0
83.28293343 184.4500738 0
85.83814832 185.729245 0
88.8548416 184.2673203 0
74.00956854 175.4722227 0
73.03020268 187.6698487 0
92.18624075 164.4160906 0
90.45164283 162.1501053 0
85.15188474 149.1226491 0
79.86056502 148.3503018 0
160.022453 91.27400961 0
161.4166143 89.79311757 0
160.8733939 93.87611823 0
168.4427298 92.22882827 0
184.9452448 84.18485152 0
188.5552456 86.60590607 0
188.6391888 81.22807489 0
177.0846025 79.09817105 0
175.435164 69.06357774 0
194.4741044 67.33626457 0
167.1690046 28.58547244 0
171.8307423 25.58736903 0
177.9869215 30.51097912 0
172.6821019 28.07133556 0
183.1298886 33.26743402 0
181.6614129 32.32236721 0
94.60401463 167.4190217 0
88.93205123 166.6400487 0
34.71621088 191.592282 0
29.9443033 190.6641922 0
91.89711216 157.2225637 0
93.50489367 162.3029802 0
189.0540881 37.1253155 0
185.1008137 32.60195984 0
186.3907098 42.44469489 0
185.8612612 38.4788956 0
189.9836515 46.40997125 0
184.8901732 41.39582304 0
186.4167755 51.28418197 0
182.7247134 46.88229674 0
181.9420037 48.50162337 0
191.3921316 63.43759452 0
169.8172725 50.6468856 0
171.4307628 51.52479951 0
167.9477805 50.55714448 0
163.2142964 50.70296029 0
172.8955309 50.04474384 0
178.4537431 51.22810001 0
165.9623401 45.54900264 0
165.8109454 47.51707058 0
164.1761295 44.27772763 0
159.4588833 37.35070863 0
163.0966714 40.60777125 0
169.5152887 30.55498995 0
203.4086278 36.92545235 0
207.4500609 34.338668 0
198.3653415 56.7872357 0
202.0918384 59.03195994 0
187.2492956 47.18435015 0
194.6570021 53.29835462 0
186.133267 44.2839304 0
192.4960868 44.89235969 0
197.8420155 33.25719174 0
200.0236443 36.90856199 0
53.53651461 161.5148104 0
62.13315084 171.3557788 0
49.36966225 174.9005286 0
50.92600624 169.3663303 0
41.4913403 191.3618919 0
41.74503219 187.59101 0
50.75408924 176.300796 0
50.09090131 189.0068106 0
49.34419142 185.4933547 0
45.00286299 185.3210197 0
35.58500721 185.3361209 0
38.65706768 185.7534901 0
37.15210321 184.6431771 0
28.12360909 187.617533 0
24.49376875 175.5366544 0
30.18493929 176.5602841 0
24.2440228 169.3408624 0
30.96799634 170.3328041 0
34.41702985 158.0304135 0
30.15172726 167.9017584 0
42.97130482 165.0289286 0
48.66397649 164.2228494 0
42.24912961 166.7554365 0
40.20809518 165.2278781 0
57.79621489 201.459494 0
58.18629814 195.2752559 0
35.79275423 204.3809049 0
38.69932912 204.5041138 0
34.97701827 200.1722879 0
37.86635625 196.2406471 0
38.91102491 197.8329435 0
36.7838958 188.3799413 0
44.46793399 191.7214319 0
43.57005305 193.3530406 0
48.6494035 193.7825813 0
43.28633474 190.4351304 0
47.90695091 180.2848633 0
53.97736957 194.7980552 0
57.03410807 191.1544736 0
72.56178637 173.6879044 0
82.33583846 172.2961837 0
64.61821986 189.1389297 0
85.170784 170.1240929 0
90.41778816 172.6675715 0
48.68642194 168.6196481 0
65.95106116 163.3189783 0
64.1447605 160.098851 0
66.64166363 165.2559072 0
67.25559388 161.8104386 0
64.05367337 155.0006737 0
74.09960539 150.48128 0
79.66301234 141.1790234 0
85.66471611 141.308646 0
81.65542891 152.0151033 0
182.2684714 51.9032173 0
178.6866616 73.34194473 0
172.5172691 80.07485063 0
175.8078715 74.65651952 0
169.9537492 90.76696215 0
168.9496098 85.27751399 0
158.248693 90.18631661 0
160.5263051 88.17943663 0
165.6377284 95.96540622 0
163.9206793 87.87980591 0
156.3777472 86.56112855 0
152.4152098 86.73525907 0
145.4759429 75.46627173 0
149.8346832 76.28901735 0
147.0444245 83.88242988 0
155.1987788 83.53854531 0
158.314349 65.94093362 0
157.1900693 69.7472029 0
162.0540206 62.41316333 0
162.3649815 65.10602522 0
180.1754339 54.88605714 0
166.5823205 69.04905931 0
191.3815769 53.92248566 0
184.7990285 75.84745351 0
170.3934605 98.10141285 0
170.898641 102.0187112 0
174.5381772 84.94273057 0
178.5289174 70.29007918 0
176.2235113 90.1925775 0
173.2263209 92.08999259 0
180.4773797 85.78792902 0
185.1860996 87.86268189 0
87.36040757 187.7227584 0
91.4746424 185.602787 0
80.7954027 186.3368695 0
88.89281068 181.3115483 0
96.56164953 165.7285065 0
99.44587562 166.8394308 0
90.37295954 177.1592818 0
90.64510791 167.7818848 0
159.1032621 43.74122484 0
167.3440093 48.49662703 0
164.2370211 30.43809326 0
149.219008 27.40594087 0
149.4941859 65.6769445 0
156.5977704 51.67564443 0
150.8784147 74.76274621 0
145.9772882 67.85820546 0
142.3664619 83.25496176 0
147.9422934 77.36663597 0
73.58474439 146.9284094 0
71.05410985 155.0906975 0
67.77767012 158.531643 0
56.22494438 154.9307443 0
47.82814311 166.7169184 0
45.75542412 166.6556173 0
21.20522087 176.4594094 0
19.92142082 169.2361433 0
13.77093143 157.5967053 0
22.31963377 153.6255132 0
56.20768375 199.9186913 0
61.59541568 204.6742696 0
76.7805237 184.6315629 0
89.53490422 187.4183521 0
76.00055667 174.8625521 0
74.05001026 192.8460541 0
82.27146021 190.695555 0
91.077648 188.1307182 0
94.98589289 192.5972517 0
92.37522259 189.2703029 0
97.21276525 170.6839403 0
89.02306163 164.7843571 0
100.4874364 173.1782565 0
104.11207 171.5864036 0
[...]
POINT_DATA 1715
SCALARS GLOBAL_ID int 1
LOOKUP_TABLE default
-1 
-1 
-1 
-1 
-1 
-1 
-1 
-1 
-1 
-1 
-1 
-1 
-1 
-1 
-1 
-1 
-1 
-1 
-1 
-1 
-1 
-1 
-1 
-1 
-1 
-1 
-1 
-1 
-1 
-1 
-1 
-1 
-1 
-1 
-1 
-1 
-1 
-1 
-1 
-1 
-1 
-1 
-1 
-1 
-1 
-1 
-1 
-1 
-1 
-1 
-1 
-1 
-1 
-1 
-1 
-1 
-1 
-1 
-1 
-1 
-1 
-1 
-1 
-1 
-1 
-1 
-1 
-1 
-1 
-1 
-1 
-1 
-1 
-1 
-1 
-1 
-1 
-1 
-1 
-1 
-1 
-1 
-1 
-1 
-1 
-1 
-1 
-1 
-1 
-1 
-1 
-1 
-1 
-1 
-1 
-1 
-1 
-1 
-1 
-1 
-1 
-1 
-1 
-1 
-1 
-1 
-1 
-1 
-1 
-1 
-1 
-1 
-1 
-1 
-1 
-1 
-1 
-1 
-1 
-1 
-1 
-1 
-1 
-1 
-1 
-1 
-1 
-1 
-1 
-1 
-1 
-1 
-1 
-1 
-1 
-1 
-1 
-1 
-1 
-1 
-1 
-1 
-1 
-1 
-1 
-1 
-1 
-1 
-1 
-1 
-1 
-1 
-1 
-1 
-1 
-1 
-1 
-1 
-1 
-1 
-1 
-1 
-1 
-1 
-1 
-1 
-1 
-1 
-1 
-1 
-1 
-1 
-1 
-1 
-1 
-1 
-1 
-1 
-1 
-1 
-1 
-1 
-1 
-1 
-1 
-1 
-1 
-1 
-1 
-1 
-1 
-1 
-1 
-1 
-1 
-1 
-1 
-1 
-1 
-1 
-1 
-1 
-1 
-1 
-1 
-1 
-1 
-1 
-1 
-1 
-1 
-1 
-1 
-1 
-1 
-1 
-1 
-1 
-1 
-1 
-1 
-1 
-1 
-1 
-1 
-1 
-1 
-1 
-1 
-1 
-1 
-1 
-1 
-1 
-1 
-1 
-1 
-1 
-1 
-1 
-1 
-1 
-1 
-1 
-1 
-1 
-1 
-1 
-1 
-1 
-1 
-1 
-1 
-1 
-1 
-1 
-1 
-1 
-1 
-1 
-1 
-1 
-1 
-1 
-1 
-1 
-1 
-1 
-1 
-1 
-1 
-1 
-1 
-1 
-1 
-1 
-1 
-1 
-1 
-1 
-1 
-1 
-1 
-1 
-1 
-1 
-1 
-1 
-1 
-1 
-1 
-1 
-1 
-1 
-1 
-1 
-1 
-1 
-1 
-1 
-1 
-1 
-1 
-1 
-1 
-1 
-1 
-1 
-1 
-1 
-1 
-1 
-1 
-1 
-1 
-1 
-1 
-1 
-1 
-1 
-1 
-1 
-1 
-1 
-1 
-1 
-1 
-1 
-1 
-1 
-1 
-1 
-1 
-1 
-1 
-1 
-1 
-1 
-1 
-1 
-1 
-1 
-1 
-1 
-1 
-1 
-1 
-1 
-1 
-1 
-1 
-1 
-1 
-1 
-1 
-1 
-1 
-1 
-1 
-1 
-1 
-1 
-1 
-1 
-1 
-1 
-1 
-1 
-1 
-1 
-1 
-1 
-1 
-1 
-1 
-1 
-1 
-1 
-1 
-1 
-1 
-1 
-1 
-1 
-1 
-1 
-1 
-1 
-1 
-1 
-1 
-1 
-1 
-1 
-1 
-1 
-1 
-1 
-1 
-1 
-1 
-1 
-1 
-1 
-1 
-1 
-1 
-1 
-1 
-1 
-1 
-1 
-1 
-1 
-1 
-1 
-1 
-1 
-1 
-1 
-1 
-1 
-1 
-1 
-1 
-1 
-1 
-1 
-1 
-1 
-1 
-1 
-1 
-1 
-1 
-1 
-1 
-1 
-1 
-1 
-1 
-1 
-1 
-1 
-1 
-1 
-1 
-1 
-1 
-1 
-1 
-1 
-1 
-1 
-1 
-1 
-1 
-1 
-1 
-1 
-1 
-1 
-1 
-1 
-1 
-1 
-1 
-1 
-1 
-1 
-1 
-1 
-1 
-1 
-1 
-1 
-1 
-1 
-1 
-1 
-1 
-1 
-1 
-1 
-1 
-1 
-1 
-1 
-1 
-1 
-1 
-1 
-1 
-1 
-1 
-1 
-1 
-1 
-1 
-1 
-1 
-1 
-1 
-1 
-1 
-1 
-1 
-1 
-1 
-1 
-1 
-1 
-1 
-1 
-1 
-1 
-1 
-1 
-1 
-1 
-1 
-1 
-1 
-1 
-1 
-1 
-1 
-1 
-1 
-1 
-1 
-1 
-1 
-1 
-1 
-1 
-1 
-1 
-1 
-1 
-1 
-1 
-1 
-1 
-1 
-1 
-1 
-1 
-1 
-1 
-1 
-1 
-1 
-1 
-1 
-1 
-1 
-1 
-1 
-1 
-1 
-1 
-1 
-1 
-1 
-1 
-1 
-1 
-1 
-1 
-1 
-1 
-1 
-1 
-1 
-1 
-1 
-1 
-1 
-1 
-1 
-1 
-1 
-1 
-1 
-1 
-1 
-1 
-1 
-1 
-1 
-1 
-1 
-1 
-1 
-1 
-1 
-1 
-1 
-1 
-1 
-1 
-1 
-1 
-1 
-1 
-1 
-1 
-1 
-1 
-1 
-1 
-1 
-1 
-1 
-1 
-1 
-1 
-1 
-1 
-1 
-1 
-1 
-1 
-1 
-1 
-1 
-1 
-1 
-1 
-1 
-1 
-1 
-1 
-1 
-1 
-1 
-1 
-1 
-1 
-1 
-1 
-1 
-1 
-1 
-1 
-1 
-1 
-1 
-1 
-1 
-1 
-1 
-1 
-1 
-1 
-1 
-1 
-1 
-1 
-1 
-1 
-1 
-1 
-1 
-1 
-1 
-1 
-1 
-1 
-1 
-1 
-1 
-1 
-1 
-1 
-1 
-1 
-1 
-1 
-1 
-1 
-1 
-1 
-1 
-1 
-1 
-1 
-1 
-1 
-1 
-1 
-1 
-1 
-1 
-1 
-1 
-1 
-1 
-1 
-1 
-1 
-1 
-1 
-1 
-1 
-1 
-1 
-1 
-1 
-1 
-1 
-1 
-1 
-1 
-1 
-1 
-1 
-1 
-1 
-1 
-1 
-1 
-1 
-1 
-1 
-1 
-1 
-1 
-1 
-1 
-1 
-1 
-1 
-1 
-1 
-1 
-1 
-1 
-1 
-1 
-1 
-1 
-1 
-1 
-1 
-1 
-1 
-1 
-1 
-1 
-1 
-1 
-1 
-1 
-1 
-1 
-1 
-1 
-1 
-1 
-1 
-1 
-1 
-1 
-1 
-1 
-1 
-1 
-1 
-1 
-1 
-1 
-1 
-1 
-1 
-1 
-1 
-1 
-1 
-1 
-1 
-1 
-1 
-1 
-1 
-1 
-1 
-1 
-1 
-1 
-1 
-1 
-1 
-1 
-1 
-1 
-1 
-1 
-1 
-1 
-1 
-1 
-1 
-1 
-1 
-1 
-1 
-1 
-1 
-1 
-1 
-1 
-1 
-1 
-1 
-1 
-1 
-1 
-1 
-1 
-1 
-1 
-1 
-1 
-1 
-1 
-1 
-1 
-1 
-1 
-1 
-1 
-1 
-1 
-1 
-1 
-1 
-1 
-1 
-1 
-1 
-1 
-1 
-1 
-1 
-1 
-1 
-1 
-1 
-1 
-1 
-1 
-1 
-1 
-1 
-1 
-1 
-1 
-1 
-1 
-1 
-1 
-1 
-1 
-1 
-1 
-1 
-1 
-1 
-1 
-1 
-1 
-1 
-1 
-1 
-1 
-1 
-1 
-1 
-1 
-1 
-1 
-1 
-1 
-1 
-1 
-1 
-1 
-1 
-1 
-1 
-1 
-1 
-1 
-1 
-1 
-1 
-1 
-1 
-1 
-1 
-1 
-1 
-1 
-1 
-1 
-1 
-1 
-1 
-1 
-1 
-1 
-1 
-1 
-1 
-1 
-1 
-1 
-1 
-1 
-1 
-1 
-1 
-1 
-1 
-1 
-1 
-1 
-1 
-1 
-1 
-1 
-1 
-1 
-1 
-1 
-1 
-1 
-1 
-1 
-1 
-1 
-1 
-1 
-1 
-1 
-1 
-1 
-1 
-1 
-1 
-1 
-1 
-1 
-1 
-1 
-1 
-1 
-1 
-1 
-1 
-1 
-1 
-1 
-1 
-1 
-1 
-1 
-1 
-1 
-1 
-1 
-1 
-1 
-1 
-1 
-1 
-1 
-1 
-1 
-1 
-1 
-1 
-1 
-1 
-1 
-1 
-1 
-1 
-1 
-1 
-1 
-1 
-1 
-1 
-1 
-1 
-1 
-1 
-1 
-1 
-1 
-1 
-1 
-1 
-1 
-1 
-1 
-1 
-1 
-1 
-1 
-1 
-1 
-1 
-1 
-1 
-1 
-1 
-1 
-1 
-1 
-1 
-1 
-1 
-1 
-1 
-1 
-1 
-1 
-1 
-1 
-1 
-1 
-1 
-1 
-1 
-1 
-1 
-1 
-1 
-1 
-1 
-1 
-1 
-1 
-1 
-1 
-1 
-1 
-1 
-1 
-1 
-1 
-1 
-1 
-1 
-1 
-1 
-1 
-1 
-1 
-1 
-1 
-1 
-1 
-1 
-1 
-1 
-1 
-1 
-1 
-1 
-1 
-1 
-1 
-1 
-1 
-1 
-1 
-1 
-1 
-1 
-1 
-1 
-1 
-1 
-1 
-1 
-1 
-1 
-1 
-1 
-1 
-1 
-1 
-1 
-1 
-1 
-1 
-1 
-1 
-1 
-1 
-1 
-1 
-1 
-1 
-1 
-1 
-1 
-1 
-1 
-1 
-1 
-1 
-1 
-1 
-1 
-1 
-1 
-1 
-1 
-1 
-1 
-1 
-1 
-1 
-1 
-1 
-1 
-1 
-1 
-1 
-1 
-1 
-1 
-1 
-1 
-1 
-1 
-1 
-1 
-1 
-1 
-1 
-1 
-1 
-1 
-1 
-1 
-1 
-1 
-1 
-1 
-1 
-1 
-1 
-1 
-1 
-1 
-1 
-1 
-1 
-1 
-1 
-1 
-1 
-1 
-1 
-1 
-1 
-1 
-1 
-1 
-1 
-1 
-1 
-1 
-1 
-1 
-1 
-1 
-1 
-1 
-1 
-1 
-1 
-1 
-1 
-1 
-1 
-1 
-1 
-1 
-1 
-1 
-1 
-1 
-1 
-1 
-1 
-1 
-1 
-1 
-1 
-1 
-1 
-1 
-1 
-1 
-1 
-1 
-1 
-1 
-1 
-1 
-1 
-1 
-1 
-1 
-1 
-1 
-1 
-1 
-1 
-1 
-1 
-1 
-1 
-1 
-1 
-1 
-1 
-1 
-1 
-1 
-1 
-1 
-1 
-1 
-1 
-1 
-1 
-1 
-1 
-1 
-1 
-1 
-1 
-1 
-1 
-1 
-1 
-1 
-1 
-1 
-1 
-1 
-1 
-1 
-1 
-1 
-1 
-1 
-1 
-1 
-1 
-1 
-1 
-1 
-1 
-1 
-1 
-1 
-1 
-1 
-1 
-1 
-1 
-1 
-1 
-1 
-1 
-1 
-1 
-1 
-1 
-1 
-1 
-1 
-1 
-1 
-1 
-1 
-1 
-1 
-1 
-1 
-1 
-1 
-1 
-1 
-1 
-1 
-1 
-1 
-1 
-1 
-1 
-1 
-1 
-1 
-1 
-1 
-1 
-1 
-1 
-1 
-1 
-1 
-1 
-1 
-1 
-1 
-1 
-1 
-1 
-1 
-1 
-1 
-1 
-1 
-1 
-1 
-1 
-1 
-1 
-1 
-1 
-1 
-1 
-1 
-1 
-1 
-1 
-1 
-1 
-1 
-1 
-1 
-1 
-1 
-1 
-1 
-1 
-1 
-1 
-1 
-1 
-1 
-1 
-1 
-1 
-1 
-1 
-1 
-1 
-1 
-1 
-1 
-1 
-1 
-1 
-1 
-1 
-1 
-1 
-1 
-1 
-1 
-1 
-1 
-1 
-1 
-1 
-1 
-1 
-1 
-1 
-1 
-1 
-1 
-1 
-1 
-1 
-1 
-1 
-1 
-1 
-1 
-1 
-1 
-1 
-1 
-1 
-1 
-1 
-1 
-1 
-1 
-1 
-1 
-1 
-1 
-1 
-1 
-1 
-1 
-1 
-1 
-1 
-1 
-1 
-1 
-1 
-1 
-1 
-1 
-1 
-1 
-1 
-1 
-1 
-1 
-1 
-1 
-1 
-1 
-1 
-1 
-1 
-1 
-1 
-1 
-1 
-1 
-1 
-1 
-1 
-1 
-1 
-1 
-1 
-1 
-1 
-1 
-1 
-1 
-1 
-1 
-1 
-1 
-1 
-1 
-1 
-1 
-1 
-1 
-1 
-1 
-1 
-1 
-1 
-1 
-1 
-1 
-1 
-1 
-1 
-1 
-1 
-1 
-1 
-1 
-1 
-1 
-1 
-1 
-1 
-1 
-1 
-1 
-1 
-1 
-1 
-1 
-1 
-1 
-1 
-1 
-1 
-1 
-1 
-1 
-1 
-1 
-1 
-1 
-1 
-1 
-1 
-1 
-1 
-1 
-1 
-1 
-1 
-1 
-1 
-1 
-1 
-1 
-1 
-1 
-1 
-1 
-1 
-1 
-1 
-1 
-1 
-1 
-1 
-1 
-1 
-1 
-1 
-1 
-1 
-1 
-1 
-1 
-1 
-1 
-1 
-1 
-1 
-1 
-1 
-1 
-1 
-1 
-1 
-1 
-1 
-1 
-1 
-1 
-1 
-1 
-1 
-1 
-1 
-1 
-1 
-1 
-1 
-1 
-1 
-1 
-1 
-1 
-1 
-1 
-1 
-1 
-1 
-1 
-1 
-1 
-1 
-1 
-1 
-1 
-1 
-1 
-1 
-1 
-1 
-1 
-1 
-1 
-1 
-1 
-1 
-1 
-1 
-1 
-1 
-1 
-1 
-1 
-1 
-1 
-1 
-1 
-1 
-1 
-1 
-1 
-1 
-1 
-1 
-1 
-1 
-1 
-1 
-1 
-1 
-1 
-1 
-1 
-1 
-1 
-1 
-1 
-1 
-1 
-1 
-1 
-1 
-1 
-1 
-1 
-1 
-1 
-1 
-1 
-1 
-1 
-1 
-1 
-1 
-1 
-1 
-1 
-1 
-1 
-1 
-1 
-1 
-1 
-1 
-1 
-1 
-1 
-1 
-1 
-1 
-1 
-1 
-1 
-1 
-1 
-1 
-1 
-1 
-1 
-1 
-1 
-1 
-1 
-1 
-1 
-1 
-1 
-1 
-1 
-1 
-1 
-1 
-1 
-1 
-1 
-1 
-1 
-1 
-1 
-1 
-1 
-1 
-1 
-1 
-1 
-1 
-1 
-1 
-1 
-1 
-1 
-1 
-1 
-1 
-1 
-1 
-1 
-1 
-1 
-1 
-1 
-1 
-1 
-1 
VECTORS G_average double
-1.815962673 -3.164373363 0 
-1.70136167 -3.155086352 0 
-3.83230954 -0.7410080364 0 
-3.881809408 -0.9819593033 0 
-4.360037556 -1.023083524 0 
-4.063117392 -0.6912585216 0 
-4.022984209 -1.016306601 0 
-4.435073752 -1.327275007 0 
-1.402385515 -4.7549867 0 
-1.601578116 -4.667393709 0 
-0.8321531922 -4.073009774 0 
-0.759733097 -4.485100801 0 
-0.5328030225 -4.16123883 0 
-0.6940581983 -4.22491207 0 
-1.319773344 -4.495613065 0 
-1.444143021 -4.217071936 0 
-3.736251529 -1.086636516 0 
-4.073243545 -1.427106032 0 
-4.185253965 -1.603462695 0 
-4.521136822 -1.153654232 0 
-4.580189088 -1.458839052 0 
-4.687921978 -1.651421573 0 
-1.751617072 -3.118905545 0 
-1.716305875 -3.057246939 0 
-0.6284420253 -3.8542688 0 
-1.038328137 -4.164381011 0 
-3.92857571 -0.3617513025 0 
-3.926464113 -0.6588259239 0 
-4.891379733 -1.615461534 0 
-4.746634207 -1.468759217 0 
-4.164251605 -0.3442851747 0 
-4.106997953 -0.8428538963 0 
-4.855300132 -1.607637389 0 
-4.867628321 -1.389093414 0 
-3.730886843 -0.6894285576 0 
-3.560702495 -0.7931361028 0 
-3.527832344 -0.8363277451 0 
-3.584255517 -0.8368270286 0 
-3.716354785 -0.5446429183 0 
-4.143277602 -1.117433752 0 
-1.569707446 -4.759437085 0 
-1.6002007 -4.911962062 0 
-1.310789428 -4.903743715 0 
-1.104523157 -3.952931966 0 
-0.3373446333 -3.717018269 0 
-0.7658662704 -3.910347144 0 
-0.9869387338 -3.807658868 0 
-0.4029649279 -4.367409607 0 
-0.4675955447 -3.514351117 0 
-0.2629640227 -3.619954024 0 
-0.4948125808 -3.984480974 0 
-0.7629771005 -3.544226428 0 
-1.613502379 -3.771273344 0 
-1.302100554 -3.96440691 0 
-1.941509048 -3.351860145 0 
-1.721532034 -3.604459549 0 
-1.67434872 -3.431269587 0 
-2.017155073 -3.210108874 0 
-1.729091774 -4.048429917 0 
-0.9416733488 -4.556369069 0 
-1.546063812 -4.893414552 0 
-1.694145179 -4.814545653 0 
-3.006008494 -1.795959221 0 
-3.181551806 -1.833510636 0 
-3.02772235 -1.75023618 0 
-3.066622008 -1.840324421 0 
-3.325938012 -1.735027844 0 
-3.15566813 -1.677264731 0 
-1.740638563 -3.012271043 0 
-1.617492214 -3.009357951 0 
-4.992992364 -1.611454251 0 
-4.80620497 -1.552546229 0 
-1.620054833 -4.810125884 0 
-1.630624929 -5.113364817 0 
-1.631276048 -3.119618068 0 
-1.625640267 -3.108327446 0 
-1.064844311 -4.817470737 0 
-1.283330451 -3.587922256 0 
-3.106688922 -1.610021491 0 
-3.16215128 -1.495201541 0 
-3.813550641 -1.422799748 0 
-3.353440643 -1.307780478 0 
-4.193395844 -1.30676394 0 
-3.565971738 -0.8125177983 0 
-5.433333923 -0.5853226313 0 
-5.529570427 -0.5855643957 0 
-4.573264654 -0.0861735836 0 
-4.25000552 0.135336125 0 
-3.80224282 -0.2134391505 0 
-4.43748709 -0.3628143539 0 
-4.595782269 -1.599990872 0 
-4.907006783 -0.9912145206 0 
-5.102604604 -1.210507133 0 
-5.072254843 -0.8776510452 0 
-5.014716678 -0.6433048971 0 
-4.525661382 -0.5010368965 0 
-3.694008621 -1.285956889 0 
-3.435140455 -0.7574265534 0 
-3.598534498 -0.3375686642 0 
-3.806053449 -0.8609454266 0 
-3.601691932 -0.4618200868 0 
-3.637894144 -0.2014153707 0 
-3.675966889 -0.2079554809 0 
-3.540432947 0.1417806847 0 
-4.173154784 0.4221344721 0 
-4.079808184 0.006235748873 0 
-3.902771906 -0.01819177597 0 
-4.011250385 0.1395022685 0 
-1.429827057 -4.396740518 0 
-1.458102457 -4.99319987 0 
-0.5771456588 -4.597621953 0 
-1.516338725 -4.783601941 0 
-0.584340395 -4.899434347 0 
-0.6214608787 -3.726526205 0 
-0.1605413237 -4.246013988 0 
-0.4213592343 -3.944523621 0 
-0.4232396928 -4.598957979 0 
-0.5101424127 -4.372563545 0 
-0.6011545939 -5.559132967 0 
-0.5188437649 -5.43742248 0 
-0.8047092643 -4.929229703 0 
-0.778917141 -5.384782427 0 
0.1425162065 -4.192586821 0 
-0.2462315755 -3.829841238 0 
-0.1593019575 -3.612643622 0 
-0.1892559273 -3.618330864 0 
-0.1386639796 -4.003467882 0 
-0.7105009051 -3.372354523 0 
-0.8031263541 -3.547039296 0 
-0.6935810692 -3.520371647 0 
-1.820582317 -3.18056141 0 
-2.027037226 -3.237299402 0 
-1.734961556 -2.998221165 0 
-1.754767497 -3.229658495 0 
-1.794636819 -4.558838716 0 
-1.95669808 -4.0638491 0 
-1.677536558 -4.695083333 0 
-1.698894512 -4.974959635 0 
-1.652745956 -4.899070572 0 
-1.968453099 -4.54931409 0 
-1.624295226 -4.792204622 0 
-1.884682927 -4.757873212 0 
-3.452352056 -1.641820188 0 
-4.383099837 -1.661339107 0 
-3.170848865 -1.630505663 0 
-3.381335274 -1.96633669 0 
-3.049673388 -1.966101027 0 
-3.362968614 -1.82170126 0 
-3.044892223 -1.758592539 0 
-3.056739332 -1.88321421 0 
-3.659604645 -1.856917039 0 
-3.234122098 -1.666302105 0 
-4.56722628 -2.139680773 0 
-4.596472142 -1.92868303 0 
-4.778773912 -1.644538853 0 
-4.947764252 -1.777785416 0 
-4.934296268 -1.675975304 0 
-4.770211533 -1.611288989 0 
-4.471753271 -1.831364892 0 
-4.861253507 -1.741362894 0 
-2.963656769 -1.713571728 0 
-3.068988049 -1.694395138 0 
-2.911025848 -2.628800693 0 
-3.67680816 -2.21399972 0 
-3.127432789 -1.599670504 0 
-3.09598111 -1.744664044 0 
-1.739595245 -3.081741042 0 
-1.611405471 -3.034504402 0 
-1.760117967 -3.04176723 0 
-1.730260604 -2.932647655 0 
-2.420339911 -3.588682778 0 
-2.266830907 -2.954075399 0 
-1.574273505 -3.082749042 0 
-1.823146055 -3.087015989 0 
-5.435251029 -1.009711967 0 
-5.469763478 -0.7589610789 0 
-4.947827073 -1.656379807 0 
-5.120490212 -1.739065883 0 
-4.775900567 -1.892143006 0 
-5.001642518 -1.932047739 0 
-4.776856831 -2.309996853 0 
-4.128684866 -1.83844551 0 
-1.903572939 -5.032829594 0 
-1.985461149 -4.906120937 0 
-1.514239006 -4.712265948 0 
-1.20527611 -4.678578227 0 
-1.063474654 -5.111274297 0 
-1.224155686 -5.029733769 0 
-0.1364490038 -3.148343846 0 
-0.111822282 -3.918618316 0 
-0.8844375931 -3.35935259 0 
-0.807259052 -3.522174389 0 
-1.785928786 -3.324962657 0 
-1.571645466 -3.096978194 0 
-1.625117661 -3.077538664 0 
-1.631540673 -3.188303579 0 
-1.949091525 -3.68432548 0 
-1.300576289 -3.297118813 0 
-2.540170441 -3.878192717 0 
-2.519631486 -4.312280257 0 
-2.914069225 -4.686329368 0 
-2.691078532 -4.537486753 0 
-4.4584803 -2.829432832 0 
-4.49864635 -2.571540214 0 
-4.163306529 -2.981856844 0 
-3.332457829 -2.280969576 0 
-3.082645597 -1.591047092 0 
-2.952608397 -1.616228371 0 
-3.043262774 -1.473038778 0 
-3.28556757 -1.847762472 0 
-4.027898619 -1.733423778 0 
-3.280222654 -0.932320398 0 
-5.320202622 -0.4869504847 0 
-5.441402737 -0.5169216986 0 
-5.58730492 -0.6512764852 0 
-5.468528475 -0.4092543269 0 
-4.93189986 -0.9741400165 0 
-5.194300965 -0.9617155104 0 
-2.608186322 -3.3311454 0 
-1.903623139 -3.762486335 0 
-0.03545056764 -4.368450625 0 
-0.08647755039 -4.900834688 0 
-3.051799063 -4.599871124 0 
-2.870277082 -4.109951146 0 
-4.166368893 -0.2772825708 0 
-4.794484465 -0.6754618261 0 
-3.564124134 -0.2363371917 0 
-3.844748179 -0.6484554747 0 
-3.516309216 -0.2619191563 0 
-3.394319498 -0.3913713318 0 
-3.847524748 -0.4977093608 0 
-4.011793193 0.1241906633 0 
-4.281608929 -0.09449613952 0 
-3.476944581 -0.9371566297 0 
-4.970193485 -1.582003215 0 
-4.954107171 -1.480196388 0 
-4.878016179 -1.608992173 0 
-4.936750184 -1.597169367 0 
-5.161943402 -1.446064757 0 
-4.743904377 -0.6777453109 0 
-4.694549693 -1.625126014 0 
-4.809446903 -1.627140384 0 
-4.74948051 -1.470993327 0 
-5.187988645 -1.055551667 0 
-4.789004817 -1.151631868 0 
-5.328179859 -0.3192318374 0 
-4.204264751 0.267799685 0 
-3.831577608 0.4674010536 0 
-3.645774527 -0.7012008939 0 
-3.426799931 -0.3935117067 0 
-3.703035598 -0.2558962241 0 
-3.483533484 -0.8986129696 0 
-3.577728402 -0.1467971452 0 
-3.195473591 -0.04199911105 0 
-4.369125417 0.4070482482 0 
-4.330467424 0.4491695007 0 
-1.6172074 -4.953320096 0 
-1.559696363 -4.519555815 0 
-1.172235871 -5.359507894 0 
-1.607499219 -4.932778629 0 
0.04894339757 -3.696866852 0 
-0.2510835809 -3.668077114 0 
-0.9177733112 -5.036649375 0 
-0.4770230962 -3.649961525 0 
-0.3217115617 -3.884128652 0 
-0.0777806591 -3.621216519 0 
-0.8106817628 -4.36311886 0 
-0.666780259 -3.815472329 0 
-0.9641370889 -4.02698712 0 
-0.3225325018 -5.115636082 0 
-0.5894067004 -5.486759434 0 
-0.5497725116 -5.748281098 0 
-0.5329663598 -5.430742467 0 
-0.2482854987 -5.334775698 0 
-0.997456313 -5.384076233 0 
-0.4104003542 -5.267582461 0 
-1.379104424 -4.61266293 0 
-1.584953188 -4.875580197 0 
-1.392993176 -4.35172347 0 
-1.076698248 -4.548693548 0 
-0.4331460311 -3.557018984 0 
-0.7813791814 -3.541868989 0 
0.3283557261 -4.087155505 0 
-0.07439933564 -4.200669194 0 
0.4474756363 -4.288596592 0 
0.4358490629 -4.112966385 0 
0.6194584646 -4.19674751 0 
-0.3601685612 -4.194876997 0 
-0.06043291724 -3.322215988 0 
0.2049984482 -3.281483044 0 
-0.5755945088 -3.019542874 0 
-0.07090028637 -3.573340962 0 
0.1008742816 -4.671273877 0 
-0.8598991579 -3.508139383 0 
-0.7931550089 -3.582853475 0 
-2.02172235 -3.88286987 0 
-1.864122909 -2.923113679 0 
-1.024179291 -3.533174728 0 
-1.587196191 -3.056232678 0 
-1.911562876 -3.005130534 0 
-1.716945036 -4.872215208 0 
-1.681306328 -4.85806909 0 
-1.66277908 -4.885031268 0 
-1.754714789 -4.814641618 0 
-1.618601113 -4.916975859 0 
-1.762808157 -4.931390618 0 
-2.227078311 -4.474583964 0 
-2.613807361 -4.861882741 0 
-2.714173367 -4.931514041 0 
-2.975547977 -4.318921347 0 
-4.231150106 -0.5495408078 0 
-3.599257012 -1.700975853 0 
-3.014833239 -2.055186171 0 
-3.63102147 -1.932672629 0 
-3.222437451 -2.037553339 0 
-3.155038806 -1.459451684 0 
-4.668322847 -2.954766159 0 
-4.852976217 -2.642144267 0 
-3.501438198 -2.864158866 0 
-4.43380742 -1.890759588 0 
-4.788134779 -3.236164428 0 
-4.662035239 -3.112114014 0 
-4.730279264 -2.471892059 0 
-4.422256304 -2.404740388 0 
-4.730946673 -2.79748429 0 
-4.440703904 -3.396092482 0 
-4.854147866 -1.635959293 0 
-4.68403315 -1.511973003 0 
-4.872019647 -1.658608786 0 
-4.883739743 -1.669557884 0 
-4.323106381 -0.8613527957 0 
-4.846906519 -1.942109624 0 
-3.522048866 -0.7261591888 0 
-3.283388728 -1.479898404 0 
-2.788604862 -2.845086008 0 
-2.668198376 -3.206237308 0 
-3.057592284 -1.765536743 0 
-3.76562722 -1.63697362 0 
-2.861573004 -1.675962217 0 
-2.866262466 -2.008917638 0 
-3.077747302 -1.617818406 0 
-3.106692645 -1.656658604 0 
-1.67483297 -2.990523228 0 
-1.892191194 -3.303720214 0 
-1.517591079 -3.10578018 0 
-1.517487601 -3.10744867 0 
-2.918505279 -3.438793282 0 
-3.168745603 -3.147456381 0 
-1.557132425 -2.812669017 0 
-2.130256337 -3.499957791 0 
-5.076319984 -1.398306618 0 
-4.861102737 -1.668483355 0 
-5.326243315 -0.6071235899 0 
-6.042127326 -1.01164372 0 
-4.933353825 -1.969046246 0 
-5.129812545 -1.6363444 0 
-4.367494894 -2.227900661 0 
-5.022276404 -2.189705167 0 
-4.86023098 -2.685879867 0 
-4.509806063 -2.50362095 0 
-2.350261182 -4.713165614 0 
-1.664103514 -4.495611696 0 
-1.569977543 -4.850929571 0 
-1.751736202 -5.124805172 0 
-1.646732071 -4.838495872 0 
-1.688175957 -4.68564451 0 
-0.6621433858 -5.441572215 0 
-0.5704474968 -5.420728214 0 
-0.4830863233 -5.826687324 0 
-0.748850466 -5.95467633 0 
-0.5919915349 -3.737576062 0 
-0.3596258863 -3.183983791 0 
-1.486016691 -3.262760767 0 
-1.795065796 -3.020758865 0 
-2.015933285 -3.500429453 0 
-1.170399351 -3.111975515 0 
-1.460152488 -2.937890395 0 
-1.932910861 -2.972132256 0 
-1.983651046 -2.285625302 0 
-2.051162719 -2.797224587 0 
-2.752636257 -2.823631315 0 
-2.053301169 -4.125813796 0 
-3.123916435 -2.479607287 0 
-3.270033641 -2.579850762 0 
-2.849209999 -5.02635248 0 
-3.039347069 -4.742533463 0 
-4.838610415 -2.899695707 0 
-4.351749164 -3.275217173 0 
-3.213396189 -3.186004983 0 
-3.858190984 -2.781968255 0 
-3.271524691 -2.046776809 0 
-2.67674478 -2.476976387 0 
-2.106484431 -2.997740407 0 
-2.370161372 -2.921946525 0 
-2.774137563 -1.656444977 0 
-2.869283614 -1.931524321 0 
-3.026400381 -1.577238144 0 
-4.066845765 -1.95722442 0 
-4.334530614 -2.017524394 0 
-3.506356066 -0.7183056908 0 
-3.747566887 0.2154918705 0 
-4.163675178 0.7294697894 0 
-5.403138303 -0.6754488375 0 
-5.378282208 -0.6432654265 0 
-5.435435452 -0.3060224435 0 
-5.367703786 -0.5942692323 0 
-5.773343912 -0.2578306258 0 
-5.416518315 -0.5169354906 0 
-5.713055609 -0.4812438201 0 
-5.25390316 -0.728943399 0 
-4.357584946 -0.899551368 0 
-5.036237674 -0.6158654533 0 
-2.193150607 -2.683862327 0 
-1.605286771 -3.594535193 0 
-2.790087372 -4.687103727 0 
-3.0084278 -3.835164001 0 
-2.907262047 -4.485253441 0 
-2.537021877 -4.621104144 0 
-0.6305583167 -5.357851565 0 
-0.6705497933 -5.210776156 0 
0.3370232423 -3.928855474 0 
0.4123451958 -4.545751 0 
-0.6308713637 -5.33030339 0 
-0.6213918814 -5.422332482 0 
-3.026584726 -4.655892699 0 
-3.221222398 -4.718581478 0 
-4.92428581 -2.621476922 0 
-5.010731564 -2.892958819 0 
-4.284573038 0.310310569 0 
-4.798646486 0.2581605172 0 
-5.393947018 -0.6315982403 0 
-5.402516778 -0.4392623057 0 
-3.518153748 0.01083803685 0 
-4.065635187 -0.9427125213 0 
-3.805222747 -0.2167855691 0 
-3.59158213 0.000941957935 0 
-3.806719657 -0.01148749513 0 
-3.288520603 -0.5469327435 0 
-4.585490394 0.6409886979 0 
-4.731915529 -1.173668036 0 
-4.866294023 -1.794959123 0 
-4.726310103 -1.746455175 0 
-4.967550663 -1.760190699 0 
-5.228064829 -1.176275738 0 
-5.192179205 -1.726379391 0 
-5.23997144 -1.544649387 0 
-4.729427448 -1.946304385 0 
-4.654004634 -1.308003452 0 