# vtk DataFile Version 3.0
MOAB 5.5.0
ASCII
DATASET UNSTRUCTURED_GRID
POINTS 986 double
131.625 0 0
190 0 0
141.4830673 0 0
149.0903427 0 0
156.6938293 0 0
164.2776541 0 0
171.8078922 0 0
180.5341075 0 0
190 13.35 0
190 7.061874793 0
229.3618102 13.35 0
198.1376649 13.35 0
204.8183396 13.35 0
213.0000408 13.35 0
219.8168714 13.35 0
210.4354116 92.20629078 0
228.2518665 26.19442571 0
226.4942722 38.54098022 0
224.6624517 48.08165239 0
222.4007438 57.64522219 0
219.1990729 68.82462446 0
214.9665587 81.08292745 0
172.5163769 130.1253254 0
204.2851327 98.35656967 0
200.0403153 102.601387 0
196.3836287 106.2580736 0
193.447253 109.1944494 0
190.2789873 112.3627151 0
187.1555603 115.486142 0
184.1706585 118.4710438 0
180.8313868 121.8103156 0
177.0089397 125.6327626 0
148.4747464 106.0836948 0
165.7076994 123.3166479 0
156.8313944 114.4403428 0
106.0836948 148.4747464 0
142.0248226 112.5336187 0
136.331188 118.2272533 0
130.0158091 124.5426321 0
124.54263 130.0158112 0
118.2272303 136.3312109 0
112.533662 142.0247792 0
130.1253254 172.5163769 0
114.4399995 156.8310511 0
123.3170715 165.708123 0
92.20629078 210.4354116 0
125.6314336 177.0102688 0
121.8076827 180.8340196 0
118.4673146 184.1743878 0
115.4816219 187.1600805 0
112.3579097 190.2837927 0
109.1936453 193.4480571 0
106.2646629 196.3770395 0
102.6096329 200.0320695 0
98.36016463 204.2815377 0
13.35 229.3618102 0
81.17401814 214.9321783 0
68.94801428 219.1602925 0
57.79466515 222.3619553 0
48.21327289 224.6342423 0
38.27433423 226.5394841 0
25.95629467 228.2790688 0
13.35 190 0
13.35 219.832497 0
13.35 213.0081586 0
13.35 204.8244724 0
13.35 198.1418765 0
0 190 0
7.061892091 190 0
0 131.625 0
0 180.5333285 0
0 171.8072503 0
0 164.276711 0
0 156.692394 0
0 149.088565 0
0 141.4811971 0
9.910939106 131.2513387 0
19.80709958 130.1261674 0
29.05732331 128.3776172 0
38.59787394 125.8385662 0
46.89011977 122.9896634 0
55.7088525 119.2546199 0
64.64808987 114.6549829 0
71.98008554 110.1998544 0
80.07191059 104.4683194 0
86.55133069 99.16656584 0
93.18966887 92.95604468 0
99.34487911 86.34660167 0
104.6890208 79.78314079 0
110.2883451 71.84442615 0
114.7499554 64.47936389 0
119.3114435 55.58704954 0
123.0724044 46.6725177 0
125.8961222 38.40972574 0
128.4098442 28.91457289 0
130.1598281 19.58468203 0
131.260957 9.782729065 0
102.8741932 182.3877934 0
102.1102443 180.061126 0
100.228398 178.677098 0
97.84484353 178.6213578 0
95.83255938 180.0019563 0
95.02426155 182.3646279 0
95.84343978 184.7877769 0
97.90528927 186.1714278 0
100.2109435 186.10446 0
102.0941238 184.7362049 0
186.3127934 98.94919318 0
185.565608 96.64547461 0
183.4769869 95.1783468 0
180.9310801 95.30452427 0
179.0629458 96.86328482 0
178.4729666 99.23160543 0
179.3091841 101.3838985 0
181.2993322 102.720251 0
183.7983025 102.6119911 0
185.6785345 101.0885033 0
166.6401678 79.27656761 0
165.9481262 77.05089803 0
164.0322855 75.5791596 0
161.5084703 75.54166383 0
159.5284386 76.98519644 0
158.7941863 79.09900313 0
159.3938975 81.36816708 0
161.3515859 82.95709331 0
163.9052489 83.01679915 0
165.8914148 81.58244709 0
83.20156761 162.7151678 0
82.37340292 160.3036877 0
80.34592484 158.9386482 0
78.10868957 158.967944 0
76.1839081 160.2983347 0
75.35197542 162.6585893 0
76.11007862 165.034429 0
78.03847908 166.4397834 0
80.39997154 166.4759641 0
82.40267813 165.0885742 0
50.50174628 201.2988556 0
49.3006896 199.2622539 0
47.00392069 198.2703983 0
44.5491954 198.8838179 0
43.0402321 200.7063076 0
42.80989471 202.851462 0
43.92238743 204.9774709 0
46.23580693 206.0818744 0
48.7363063 205.5233896 0
50.31268836 203.6616177 0
44.54054334 175.4780488 0
43.46195993 173.5563244 0
41.73969078 172.5717905 0
39.62044855 172.5920186 0
37.69334328 173.8573204 0
36.79801229 176.1288315 0
37.41909531 178.4905629 0
39.18418003 179.974667 0
41.34581926 180.2351436 0
43.11676808 179.4662376 0
44.38968402 177.7432644 0
203.0647213 42.85294127 0
200.9067429 42.96521719 0
199.0291037 44.3393523 0
198.2572333 46.73643884 0
199.1011245 49.10944879 0
201.0779023 50.44391521 0
203.4428063 50.39425903 0
205.4025572 48.92061678 0
206.1007862 46.46036159 0
205.1297854 44.08602384 0
177.2439146 36.89173833 0
174.5801912 37.21836867 0
172.7924143 39.08183618 0
172.5037501 41.44235641 0
173.4777537 43.37933833 0
175.5949986 44.56567261 0
178.0596513 44.25452276 0
179.7462591 42.70247471 0
180.2828303 40.55888812 0
179.442167 38.28469633 0
138.3367665 6.767523602 0
193.5909053 19.68227966 0
201.2510335 90.08489081 0
139.1612059 103.3107317 0
103.5972438 159.2767747 0
82.87119182 204.5996127 0
10.94105573 183.1088565 0
104.8135679 180.9022641 0
187.7996016 97.66106528 0
168.1695668 77.60114612 0
84.79316036 160.4368594 0
51.54044328 199.0731014 0
45.38725924 173.6275748 0
201.9457174 41.08333667 0
175.4895705 34.8874313 0
148.55124 8.772793296 0
160.2214434 8.508896219 0
168.9316041 7.768438233 0
175.8660364 6.635856947 0
182.7249563 10.2506783 0
201.1362386 19.91005141 0
208.4313318 20.57597587 0
216.4463442 22.28402355 0
218.290568 32.09633234 0
216.7984632 41.69808912 0
214.914386 50.85301093 0
212.3086068 60.29771336 0
208.9383535 71.0326163 0
205.0832695 81.49378246 0
197.1187006 96.19539097 0
194.2612308 101.2594816 0
192.0814647 105.2959065 0
189.2977206 108.2968493 0
186.2836819 111.2505567 0
183.1277077 114.1134994 0
179.3021105 117.0378221 0
174.2528018 121.404935 0
166.7059881 112.3364948 0
159.4386688 105.2614698 0
134.3142443 110.0303674 0
126.9997674 114.7568388 0
118.3825544 123.8495815 0
108.3918795 132.0208209 0
101.7072275 140.9396916 0
111.89581 167.4741221 0
119.4477876 173.9878876 0
116.2798285 179.5122029 0
113.833981 183.3360422 0
111.2867499 186.4948878 0
108.4512284 189.4083491 0
105.3060447 192.1928933 0
101.7511541 195.0642965 0
97.39467024 198.0508593 0
91.38227149 201.1755229 0
72.30915338 207.885245 0
60.52807504 210.3260569 0
50.93604571 214.846708 0
41.63990344 216.9836475 0
32.11278189 218.5066092 0
22.34328984 216.4619253 0
20.74407009 208.3226244 0
20.04413069 200.9711747 0
19.81117963 193.6533743 0
8.403266132 175.0965353 0
7.185077269 167.4202347 0
6.021005827 160.8669262 0
9.471661865 153.5541734 0
16.72537379 137.5569089 0
25.64826853 137.5180775 0
35.78300151 135.729885 0
45.58946845 132.871766 0
55.0292925 129.1874217 0
64.31896356 124.7758571 0
73.16205994 119.8037642 0
81.44702465 114.1494629 0
88.72713537 108.0189676 0
95.48654475 102.0864009 0
102.5161582 95.78782613 0
109.0527722 88.54920697 0
114.8383284 80.63742529 0
120.1158715 72.39564279 0
124.9537381 63.75055619 0
129.2625976 54.59187725 0
132.8337854 45.24563909 0
135.6045928 35.55362678 0
137.5944769 25.50721151 0
138.8213718 15.30482289 0
103.1960939 178.2563879 0
98.82546416 176.5855379 0
101.5112288 176.167842 0
96.28120497 177.1274728 0
93.16227527 180.6891154 0
93.64455606 177.9470392 0
93.03804403 183.2824103 0
95.21139888 187.2265435 0
99.42708076 188.0645245 0
102.0679467 187.049435 0
104.4865283 184.5677232 0
186.5492462 94.95408755 0
181.8351516 93.02893202 0
184.7017978 92.58559446 0
179.2426508 93.82358059 0
176.4811593 97.72506126 0
176.7414563 94.88416012 0
176.5532757 100.5253948 0
179.6152645 104.0181922 0
182.5344653 104.7891174 0
185.5952436 103.5277406 0
187.8664753 101.0150282 0
166.8617861 75.27469151 0
162.8812295 73.31994355 0
165.3277436 73.49888047 0
160.1313391 73.83387498 0
156.9228447 77.48321867 0
157.4939262 74.70289135 0
156.7084301 80.2228641 0
159.4236138 84.18566254 0
156.9462502 83.13187717 0
161.8065783 85.2136365 0
166.0525973 84.18778752 0
168.6586207 80.41240893 0
83.17359317 158.2776118 0
79.08510302 156.7563134 0
81.43701148 156.6711566 0
76.51537663 157.4181976 0
73.46790893 161.10277 0
73.9282942 158.3665116 0
73.29173887 163.8468079 0
76.10540686 167.9489448 0
73.44616006 166.7999792 0
78.69254672 168.7952588 0
82.8353291 167.43975 0
84.57727225 165.35058 0
49.73828441 197.0389672 0
44.92108555 196.3652509 0
42.53218655 197.677186 0
40.8196345 201.8690938 0
40.24106117 199.2458012 0
41.30806325 204.1377144 0
44.47247402 207.5440465 0
47.46180793 207.7879185 0
50.46241093 206.7209914 0
52.62285424 201.6591636 0
43.71782903 171.8585687 0
41.64575125 170.7834907 0
37.69704463 171.2874028 0
39.6955537 170.1559576 0
35.63783265 173.1051833 0
34.90947565 178.1119803 0
33.68029114 175.2964968 0
36.42291996 180.4096978 0
40.28185741 181.9861287 0
38.06514637 181.9559384 0
42.62471177 181.6155137 0
44.81000794 180.5084976 0
46.39059939 176.0115428 0
199.259747 41.40123912 0
196.1185415 45.13692144 0
196.1787676 47.88536318 0
199.0090344 51.85564148 0
196.4217076 50.58535119 0
201.6940091 52.7245785 0
206.0117793 50.97794137 0
208.3383862 48.50581888 0
207.7372579 45.00186413 0
204.6062521 41.55721927 0
172.8807104 35.99185371 0
170.5191718 40.1117998 0
170.52614 37.32203861 0
170.9246116 42.58728578 0
173.5185096 45.75355557 0
171.5683483 44.61421144 0
176.0840781 46.5957336 0
180.4988142 44.84586316 0
181.9290464 42.83713615 0
181.7691314 38.38330212 0
183.2740316 40.60833797 0
180.273168 36.31526158 0
184.6121128 19.29638152 0
170.2080697 117.793898 0
146.0074104 96.48939784 0
96.84877608 150.6471807 0
124.6304045 172.3056641 0
19.82476984 185.45021 0
8.025389041 141.679958 0
86.11898619 162.9544101 0
178.506872 34.200597 0
156.8066014 18.1804276 0
166.0800494 16.27434927 0
197.4274688 26.03007429 0
204.23854 26.38287899 0
210.7917747 28.11673371 0
210.8266147 35.73430361 0
211.2759643 45.54926142 0
209.9351736 54.08417988 0
203.5849118 62.49267632 0
196.4329524 82.49948841 0
194.0114284 89.80827673 0
192.9724464 97.20199763 0
190.6480419 102.2463726 0
188.4553288 104.5838467 0
185.2535013 107.1342559 0
182.5908983 110.1367542 0
179.2284319 112.317037 0
154.4102333 98.0272274 0
167.7893979 103.3093757 0
126.9337171 101.3101071 0
115.8082328 110.5693832 0
104.4349845 118.7196596 0
94.8286586 130.3055645 0
102.8147591 168.1975381 0
112.486971 175.1486866 0
111.5248035 179.7137726 0
109.8852769 183.0697781 0
107.6645066 185.780134 0
104.8787001 188.2624115 0
101.2988555 190.5509629 0
[...]
CELL_DATA 1788
SCALARS DD_DISTANCE_AVE double 1
LOOKUP_TABLE default
5.073415e-06 
4.997682504e-06 
5.441606572e-06 
5.573598088e-06 
6.179003992e-06 
5.752546445e-06 
5.783669602e-06 
6.327528225e-06 
6.629281295e-06 
6.605772702e-06 
5.806645994e-06 
6.250666587e-06 
5.840202599e-06 
5.959287244e-06 
6.38446984e-06 
6.102553681e-06 
5.417338713e-06 
5.979852897e-06 
6.165451639e-06 
6.383601122e-06 
6.495204745e-06 
6.669530665e-06 
4.989999566e-06 
4.875823453e-06 
5.445121038e-06 
5.935290245e-06 
5.485619965e-06 
5.559942588e-06 
6.777752427e-06 
6.669932765e-06 
5.815490387e-06 
5.852579405e-06 
6.737382208e-06 
6.766014636e-06 
5.267332662e-06 
5.263664401e-06 
5.233650537e-06 
5.315404008e-06 
5.228909946e-06 
5.957960538e-06 
6.673256348e-06 
6.763997611e-06 
6.789699818e-06 
5.755309024e-06 
5.206334847e-06 
5.551141249e-06 
5.465076775e-06 
6.073102591e-06 
4.925064632e-06 
5.052418014e-06 
5.584153347e-06 
5.241523132e-06 
5.73785938e-06 
5.841035081e-06 
5.414129579e-06 
5.603022566e-06 
5.336165828e-06 
5.29076086e-06 
6.075803515e-06 
6.401696079e-06 
6.784107022e-06 
6.743165031e-06 
4.909806828e-06 
5.122988236e-06 
4.897719971e-06 
4.978046242e-06 
5.236180176e-06 
5.041283221e-06 
4.848338692e-06 
4.864773566e-06 
6.798162493e-06 
6.736042679e-06 
6.737890159e-06 
6.882086301e-06 
5.043570224e-06 
5.055910654e-06 
6.721937208e-06 
5.329454784e-06 
5.030581884e-06 
5.010303723e-06 
5.703295646e-06 
5.16819774e-06 
6.059100588e-06 
5.262132462e-06 
7.280672699e-06 
7.388279006e-06 
6.368760698e-06 
6.172176849e-06 
5.293453979e-06 
6.185655882e-06 
6.515131416e-06 
6.828714446e-06 
6.685748603e-06 
6.533935266e-06 
6.582394272e-06 
5.961899897e-06 
5.44943647e-06 
5.095409532e-06 
5.03782265e-06 
5.433650483e-06 
5.048416889e-06 
5.05003387e-06 
5.108164034e-06 
5.169247359e-06 
6.089005496e-06 
5.678642254e-06 
5.387876667e-06 
5.843921179e-06 
6.318235688e-06 
6.992931003e-06 
6.378717235e-06 
6.69979015e-06 
6.783038303e-06 
5.241606703e-06 
5.882352847e-06 
5.518431973e-06 
6.432312066e-06 
6.1184708e-06 
7.427420007e-06 
7.255036844e-06 
6.459973711e-06 
6.928662469e-06 
6.09728494e-06 
5.321880124e-06 
5.029701311e-06 
5.039741131e-06 
5.559793631e-06 
4.99151686e-06 
5.260400745e-06 
5.173783717e-06 
5.15226411e-06 
5.372322635e-06 
4.850532787e-06 
5.134914764e-06 
6.609442004e-06 
6.224531165e-06 
6.689197183e-06 
6.809539742e-06 
6.779742148e-06 
6.701979937e-06 
6.541448009e-06 
6.541192176e-06 
5.343618715e-06 
6.397877676e-06 
5.101306927e-06 
5.496882547e-06 
5.067608009e-06 
5.367111343e-06 
4.914702574e-06 
5.0285394e-06 
5.73394833e-06 
5.092463878e-06 
6.473140493e-06 
6.408147559e-06 
6.5680197e-06 
6.742712113e-06 
6.779183757e-06 
6.723334768e-06 
6.56995261e-06 
6.842585223e-06 
4.828171086e-06 
4.888470394e-06 
5.516259596e-06 
5.968393968e-06 
5.017968033e-06 
4.954021427e-06 
4.933067396e-06 
4.945277882e-06 
4.919185676e-06 
4.739348742e-06 
6.017863876e-06 
5.211528459e-06 
4.979804111e-06 
4.996646437e-06 
6.997326161e-06 
7.037035558e-06 
6.789164273e-06 
6.907675194e-06 
6.583796912e-06 
6.847077151e-06 
6.742814685e-06 
5.870550097e-06 
6.834863725e-06 
6.747833323e-06 
6.450962365e-06 
6.28942754e-06 
6.667997569e-06 
6.587288784e-06 
4.733860082e-06 
5.732311923e-06 
5.024534732e-06 
5.235532216e-06 
5.272170627e-06 
5.01429333e-06 
5.003799019e-06 
5.155217923e-06 
5.78786096e-06 
5.107959071e-06 
6.421265175e-06 
6.912543339e-06 
7.189891832e-06 
6.778971537e-06 
7.217156532e-06 
7.114060217e-06 
7.058753993e-06 
5.659441873e-06 
4.998992181e-06 
4.902737641e-06 
4.8795539e-06 
5.279928846e-06 
6.040916852e-06 
4.935343037e-06 
6.996503393e-06 
7.221069879e-06 
7.681423545e-06 
7.291083555e-06 
6.958268416e-06 
7.3139072e-06 
5.94975477e-06 
5.829640606e-06 
6.166787639e-06 
6.81199686e-06 
7.484590926e-06 
6.815326818e-06 
5.79875215e-06 
6.760771299e-06 
4.969230051e-06 
5.452987231e-06 
4.908994159e-06 
4.75260308e-06 
5.422970922e-06 
5.574721402e-06 
5.937367297e-06 
5.198057041e-06 
6.92802335e-06 
6.947780489e-06 
6.824347051e-06 
6.757436553e-06 
7.205012339e-06 
6.601316619e-06 
6.502820107e-06 
6.662890836e-06 
6.460212438e-06 
6.760378322e-06 
6.3882072e-06 
6.990541795e-06 
6.177409393e-06 
5.612879923e-06 
5.388668041e-06 
5.083576233e-06 
5.134933978e-06 
5.186305276e-06 
4.989699899e-06 
4.672900226e-06 
6.350119637e-06 
6.332181609e-06 
6.790792292e-06 
6.476891302e-06 
7.43040241e-06 
6.892198828e-06 
5.194414208e-06 
5.094656523e-06 
6.990924912e-06 
5.134182076e-06 
5.426409914e-06 
5.032976203e-06 
6.189777098e-06 
5.39021254e-06 
5.808633327e-06 
7.126865755e-06 
7.329827637e-06 
7.662454644e-06 
7.158601503e-06 
7.041984624e-06 
6.937511411e-06 
6.936625614e-06 
6.279580114e-06 
6.711847771e-06 
5.977167867e-06 
6.09061798e-06 
5.246945216e-06 
5.250294424e-06 
5.999814997e-06 
6.145275956e-06 
6.276947674e-06 
5.985584144e-06 
6.142640239e-06 
5.844996901e-06 
4.803734025e-06 
4.770534521e-06 
4.45366187e-06 
5.009858688e-06 
6.445405742e-06 
5.234285945e-06 
5.289179357e-06 
6.081501877e-06 
4.863381456e-06 
5.272853118e-06 
4.804551042e-06 
4.975069862e-06 
6.87446402e-06 
6.834346374e-06 
6.755002655e-06 
6.858369301e-06 
6.843317218e-06 
6.73351618e-06 
6.393505791e-06 
7.041404016e-06 
7.15191499e-06 
6.823885627e-06 
5.942267098e-06 
5.586380065e-06 
5.129452451e-06 
5.707729931e-06 
5.339592567e-06 
4.81279945e-06 
7.476491982e-06 
7.499323352e-06 
6.316713407e-06 
6.625418534e-06 
7.736892603e-06 
7.402609381e-06 
6.811315384e-06 
6.464625296e-06 
7.085894939e-06 
7.448988264e-06 
6.694523144e-06 
6.419179014e-06 
6.76318742e-06 
6.796215947e-06 
6.117968987e-06 
7.013780674e-06 
5.204654233e-06 
5.16441803e-06 
5.699959989e-06 
6.003673992e-06 
4.933530814e-06 
5.742415796e-06 
4.66981366e-06 
4.878177009e-06 
4.986562976e-06 
5.092274257e-06 
4.974122612e-06 
5.530268921e-06 
4.978267489e-06 
4.981052e-06 
6.329525663e-06 
6.304833298e-06 
4.620446509e-06 
5.700623959e-06 
6.754219268e-06 
6.770111914e-06 
6.872207985e-06 
7.516681622e-06 
6.794226416e-06 
6.893139143e-06 
6.32597383e-06 
6.883656609e-06 
7.092497418e-06 
6.678688745e-06 
6.702634647e-06 
6.208957992e-06 
6.646396961e-06 
6.902707332e-06 
6.706613111e-06 
6.526270919e-06 
7.278771918e-06 
7.132763989e-06 
7.34541559e-06 
7.417029219e-06 
5.510488533e-06 
4.667747884e-06 
5.141948409e-06 
5.1128414e-06 
5.661066421e-06 
4.812300987e-06 
4.761546362e-06 
5.190910016e-06 
4.42939186e-06 
5.0812782e-06 
5.570952516e-06 
6.318085767e-06 
5.729091161e-06 
6.021862077e-06 
7.62854215e-06 
7.540843637e-06 
7.643438849e-06 
7.489092029e-06 
6.402750172e-06 
6.60622708e-06 
5.65500608e-06 
5.37690538e-06 
5.404443798e-06 
5.576689101e-06 
4.73058576e-06 
5.032503462e-06 
4.913704427e-06 
6.198858492e-06 
6.521229945e-06 
5.194327582e-06 
5.440566507e-06 
6.196514504e-06 
7.460985365e-06 
7.20111073e-06 
7.222178547e-06 
7.102351405e-06 
7.675486536e-06 
7.127130948e-06 
7.614856221e-06 
7.309368189e-06 
6.23846551e-06 
7.039157987e-06 
4.835220189e-06 
5.438197979e-06 
7.429520853e-06 
6.795580045e-06 
7.311063833e-06 
7.191823389e-06 
7.399030164e-06 
7.255683934e-06 
5.696833079e-06 
6.598478443e-06 
7.126575456e-06 
7.463399388e-06 
7.388135763e-06 
7.728837746e-06 
7.01164857e-06 
7.567285574e-06 
6.23655883e-06 
6.952040514e-06 
7.418009387e-06 
7.538010394e-06 
4.950605082e-06 
5.833231758e-06 
5.302778912e-06 
5.004346261e-06 
5.295853947e-06 
4.847509202e-06 
6.383847799e-06 
6.637175969e-06 
6.891010888e-06 
6.747995933e-06 
7.062356707e-06 
7.261827878e-06 
7.337679173e-06 
6.933519316e-06 
6.753734201e-06 
6.288046585e-06 
6.046845169e-06 
6.372040341e-06 
6.817706261e-06 
6.083751461e-06 
7.134023265e-06 
7.431182458e-06 
6.028743393e-06 
6.435938996e-06 
6.159480649e-06 
4.939894849e-06 
4.064062771e-06 
4.833607457e-06 
4.620916068e-06 
3.776740566e-06 
4.632595888e-06 
5.294602427e-06 
4.92541864e-06 
4.711649475e-06 
4.921398398e-06 
5.002966179e-06 
6.844444893e-06 
4.799033706e-06 
4.588691706e-06 
4.900679862e-06 
5.157949651e-06 
4.709177847e-06 
6.386520975e-06 
6.387971905e-06 
7.457171745e-06 
6.960211825e-06 
7.019188044e-06 
7.317480551e-06 
5.302687226e-06 
5.658103247e-06 
4.878848249e-06 
5.428391347e-06 
6.43352098e-06 
4.92847768e-06 
7.337380606e-06 
5.771196823e-06 
7.662683864e-06 
7.520857194e-06 
7.611541809e-06 
7.302083519e-06 
7.482200534e-06 
7.069740843e-06 
6.774181185e-06 
6.676512557e-06 
6.098700484e-06 
6.626809249e-06 
6.418456891e-06 
5.836677807e-06 
6.776268489e-06 
6.782700604e-06 
5.396127281e-06 
5.156866425e-06 
4.977496499e-06 
5.05088956e-06 
3.830908897e-06 
4.897404564e-06 
5.359273968e-06 
6.444639577e-06 
6.168913213e-06 
6.221052411e-06 
6.324716222e-06 
4.76257433e-06 
5.125212852e-06 
5.995675087e-06 
4.911538636e-06 
4.338684926e-06 
5.815942871e-06 
5.081313032e-06 
5.460051303e-06 
5.063931973e-06 
5.102611459e-06 
5.021067747e-06 
6.538723184e-06 
6.667321894e-06 
5.405092867e-06 
7.052903187e-06 
6.728723429e-06 
6.960716067e-06 
6.433882121e-06 
6.602209679e-06 
6.601782554e-06 
6.826614703e-06 
6.843151475e-06 
5.909814133e-06 
5.903956385e-06 
6.311177045e-06 
6.117443385e-06 
5.687784395e-06 
6.496997302e-06 
7.720311986e-06 
7.090731656e-06 
7.725737281e-06 
5.944523978e-06 
6.041672821e-06 
5.510107405e-06 
4.991572162e-06 
7.576641985e-06 
6.389128487e-06 
7.703454764e-06 
7.796846342e-06 
5.758050064e-06 
5.581159736e-06 
6.861509362e-06 
6.264399069e-06 
6.458552071e-06 
5.875969946e-06 
6.151966909e-06 
5.734500652e-06 
6.156427699e-06 
6.967603689e-06 
7.108195051e-06 
6.604632431e-06 
7.025552941e-06 
7.823113389e-06 
7.19212974e-06 
4.884469515e-06 
6.309533779e-06 
5.309213483e-06 
6.129921746e-06 
6.036061978e-06 
5.744799126e-06 
4.906199904e-06 
4.300178549e-06 
4.814891528e-06 
4.223114086e-06 
5.120812659e-06 
4.898452541e-06 
5.173440155e-06 
5.501207499e-06 
5.056324541e-06 
4.715392369e-06 
5.182059496e-06 
5.356763481e-06 
4.564593066e-06 
4.063163076e-06 
5.146581811e-06 
5.545952808e-06 
4.75202113e-06 
4.756951031e-06 
4.778027643e-06 
5.226474316e-06 
4.607719874e-06 
5.366542055e-06 
4.780163421e-06 
5.849096006e-06 
5.640021677e-06 
5.673562642e-06 
7.190484616e-06 
7.188243506e-06 
7.372241606e-06 
7.141185078e-06 
7.349302467e-06 
7.176766643e-06 
7.311359606e-06 
7.043468849e-06 
7.284586239e-06 
7.072070001e-06 
7.262701017e-06 
6.879555608e-06 
6.311702387e-06 
7.046133674e-06 
7.27992453e-06 
7.123342477e-06 
7.172345024e-06 
7.270785879e-06 
6.349681094e-06 
6.358805343e-06 
7.164424634e-06 
5.596337225e-06 
7.340228355e-06 
7.216504085e-06 
6.043416638e-06 
7.215410474e-06 
6.474372777e-06 
6.926517585e-06 
6.425308549e-06 
5.009496693e-06 
5.927912396e-06 
5.532214527e-06 
4.160293802e-06 
4.311115871e-06 
4.585913792e-06 
6.045904669e-06 
4.708364992e-06 
4.618369735e-06 
5.078103646e-06 
5.408330327e-06 
4.59299686e-06 
4.714627561e-06 
4.084448321e-06 
4.482620132e-06 
4.937742888e-06 
4.55651555e-06 
5.870263535e-06 
7.060268321e-06 
7.254986858e-06 
5.022990605e-06 
5.954479374e-06 
6.950913879e-06 
6.517259379e-06 
5.765397589e-06 
6.033151134e-06 
7.865220765e-06 
4.848503721e-06 
7.008910416e-06 
4.678448342e-06 
4.587221664e-06 
4.997949371e-06 
4.592763975e-06 
4.941583094e-06 
5.0614975e-06 
4.282236564e-06 
6.260768035e-06 
4.55714398e-06 
4.698981769e-06 
5.461261281e-06 
4.27229177e-06 
3.586930429e-06 
5.911040855e-06 
4.403189849e-06 
3.823366417e-06 
4.077092065e-06 
4.552147174e-06 
4.138454722e-06 
6.569606435e-06 
5.966707505e-06 
7.490464851e-06 
7.437416449e-06 
7.191121338e-06 
7.221666804e-06 
8.011503704e-06 
7.108389551e-06 
7.744747429e-06 
8.548016086e-06 
7.111900576e-06 
5.464748476e-06 
7.263183224e-06 
6.676360118e-06 
8.000081293e-06 
3.557019461e-06 
4.701061515e-06 
5.454704e-06 
4.055083831e-06 
6.636517864e-06 
7.54837922e-06 
7.056052406e-06 
6.891283982e-06 
7.580691232e-06 
6.72767624e-06 
7.126478334e-06 
6.601852293e-06 
7.062530462e-06 
5.723735108e-06 
6.547236716e-06 
6.275775639e-06 
4.969711374e-06 
4.983095174e-06 
4.273615397e-06 
6.423540508e-06 
5.617932977e-06 
5.457919316e-06 
7.805305021e-06 
7.695052167e-06 
8.442584768e-06 
6.697162262e-06 
5.807291991e-06 
7.709143197e-06 
5.026128745e-06 
6.469645734e-06 
4.938337737e-06 
6.283310832e-06 
7.349492914e-06 
7.14468482e-06 
7.360811943e-06 
8.017889717e-06 
5.820611982e-06 
6.102254612e-06 
4.65941344e-06 
4.392588626e-06 
6.058561233e-06 
4.781608634e-06 
5.542204991e-06 
7.264897864e-06 
4.413474413e-06 
5.115104554e-06 
4.937846788e-06 
5.478416227e-06 
4.367685085e-06 
4.661894341e-06 
4.956915693e-06 
5.993525832e-06 
7.013859065e-06 
5.927622878e-06 
8.714668549e-06 
6.765723129e-06 
7.618404423e-06 
8.050882744e-06 
4.336567272e-06 
6.297266682e-06 
4.473835111e-06 
4.731354026e-06 
4.89913249e-06 
3.786847236e-06 
5.794089491e-06 
7.463588667e-06 
8.133648377e-06 
6.588206959e-06 
7.546895249e-06 
8.46451156e-06 
7.913976087e-06 
7.126621932e-06 
5.581741124e-06 
7.7169669e-06 
5.116276167e-06 
6.247425239e-06 
5.49897739e-06 
4.859107741e-06 
6.919647877e-06 
4.758222354e-06 
6.02660286e-06 
7.036101528e-06 
6.318653983e-06 
5.427450983e-06 
3.800893043e-06 
3.704493741e-06 
5.99275994e-06 
5.007885595e-06 
4.176146514e-06 
5.701526947e-06 
6.80679648e-06 
6.062932847e-06 
6.995880868e-06 
6.19755243e-06 
6.412258397e-06 
7.02116476e-06 
4.696865909e-06 
4.706369478e-06 
3.936293058e-06 
3.442405565e-06 
6.200006102e-06 
5.417472116e-06 
4.21524472e-06 
4.652453838e-06 
5.25319674e-06 
6.638787e-06 
4.822981128e-06 
4.161173132e-06 
8.061641666e-06 
7.362429846e-06 
6.277503632e-06 
4.754412806e-06 
5.621909358e-06 
7.642222818e-06 
6.9504604e-06 
7.948538644e-06 
7.184625552e-06 
7.17254217e-06 
7.687195401e-06 
7.296021431e-06 
5.055148664e-06 
6.351642797e-06 
5.977211504e-06 
5.859813634e-06 
4.891012568e-06 
7.241648435e-06 
7.053670011e-06 
7.720756507e-06 
8.682852391e-06 
5.3420585e-06 
5.04593958e-06 
4.824139979e-06 
5.035819156e-06 
8.337871378e-06 
7.326482035e-06 
7.758819705e-06 
4.61877333e-06 
8.41201989e-06 
7.151777239e-06 
7.838423718e-06 
7.374464584e-06 
5.314764862e-06 
7.168723823e-06 
6.749349181e-06 
4.878189651e-06 
5.997066562e-06 
6.542766576e-06 
7.524533623e-06 
5.805269206e-06 
7.726859298e-06 
7.268061595e-06 
8.065457824e-06 
5.213909177e-06 
4.953169773e-06 
8.0852805e-06 
5.835642341e-06 
7.310212475e-06 
6.259711717e-06 
5.510195473e-06 
7.561118439e-06 
4.782343081e-06 
4.291654177e-06 
4.351580281e-06 
5.029534714e-06 
3.862988019e-06 
6.147810189e-06 
5.415090496e-06 
4.573079369e-06 
5.504491903e-06 
5.908035083e-06 
4.477095913e-06 
4.461435595e-06 
6.161175536e-06 
5.395594405e-06 
6.839836939e-06 
6.330985129e-06 
4.73749294e-06 
5.21076283e-06 
4.402256457e-06 
4.318114084e-06 
5.560080999e-06 
5.188153402e-06 
3.773388579e-06 
6.094527469e-06 
4.464926318e-06 
5.920218765e-06 
6.13648267e-06 
4.951646909e-06 
6.422071784e-06 
7.721823677e-06 
7.811827817e-06 
7.269627078e-06 
7.664967698e-06 
6.608215713e-06 
7.615376646e-06 
7.801752321e-06 
5.528225988e-06 
6.48432555e-06 
7.4800155e-06 
7.279204391e-06 
6.982780714e-06 
7.527499899e-06 
6.091519285e-06 
7.290362874e-06 
7.006285044e-06 
6.61733603e-06 
7.140018148e-06 
6.949459168e-06 
7.451098339e-06 
7.279294957e-06 
7.406960026e-06 
7.549904488e-06 
6.341667445e-06 
7.603273973e-06 
7.650183273e-06 
7.731113997e-06 
7.701719548e-06 
7.791028257e-06 
7.80905851e-06 
7.840886195e-06 
7.221714063e-06 
7.526513963e-06 
7.77677129e-06 
7.915752134e-06 
7.09865708e-06 
6.344293538e-06 
6.864254498e-06 
6.150646712e-06 
6.747245415e-06 
5.077941137e-06 
4.438685893e-06 
4.520267626e-06 
3.174159038e-06 
4.417346174e-06 
4.361000912e-06 
4.356795108e-06 
4.291955081e-06 
4.154529949e-06 
4.611329679e-06 
4.010072601e-06 
3.957162717e-06 
3.528494464e-06 
3.83196341e-06 
2.787195316e-06 
3.360541368e-06 
4.536454767e-06 
3.59993245e-06 
4.236935824e-06 
3.849633043e-06 
3.921921075e-06 
6.187747119e-06 
5.730485431e-06 
5.593878827e-06 
7.237639972e-06 
5.434359353e-06 
7.057465491e-06 
4.979329725e-06 
6.592787655e-06 
5.867477576e-06 
5.963693739e-06 
4.26459714e-06 
4.72176929e-06 
4.261542054e-06 
4.280685899e-06 
3.616399307e-06 
3.954456327e-06 
3.352668814e-06 
3.402724152e-06 
3.509222519e-06 
3.324168882e-06 
3.919583977e-06 
3.694141553e-06 
4.167710783e-06 
5.521947977e-06 
4.105357554e-06 
5.057715764e-06 
6.255547774e-06 
5.740898087e-06 
4.328436032e-06 
4.136390588e-06 
3.917656414e-06 
4.091487408e-06 
5.13685556e-06 
4.634582677e-06 
6.837845643e-06 
6.165813749e-06 
5.539447287e-06 
6.956168915e-06 
6.74872574e-06 
4.594231578e-06 
6.741668347e-06 
5.623301843e-06 
7.067353452e-06 
4.871906658e-06 
6.803221461e-06 
9.500711388e-06 
5.943222258e-06 
7.615906752e-06 
8.314001804e-06 
8.023809834e-06 
7.027810979e-06 
8.108347035e-06 
6.613260983e-06 
4.958767149e-06 
4.579186881e-06 
7.474173077e-06 
7.990031703e-06 
5.021167741e-06 
3.199468439e-06 
9.657717813e-06 
4.306809603e-06 
5.435504901e-06 
3.768310533e-06 
7.479272412e-06 
6.583615504e-06 
4.185547729e-06 
7.389475145e-06 
6.424336749e-06 
7.430699902e-06 
8.799286768e-06 
1.035856433e-05 
4.420262871e-06 
1.028340484e-05 
7.884891999e-06 
5.570348525e-06 
3.987193824e-06 
6.523448595e-06 
2.400425085e-06 
7.228911102e-06 
5.986017874e-06 
5.903774279e-06 
3.94306717e-06 
2.852548831e-06 
2.294759058e-06 
3.995181173e-06 
5.531906719e-06 
6.33243353e-06 
7.47152052e-06 
6.662814778e-06 
8.654013465e-06 
4.553438081e-06 
5.8433581e-06 
8.21900396e-06 
2.487060065e-06 
2.67412193e-06 
3.18873672e-06 
5.51103645e-06 
7.904730109e-06 
8.133833712e-06 
8.952388168e-06 
7.929653791e-06 
1.058427879e-05 
7.878904475e-06 
2.555277709e-06 
7.111346016e-06 
5.379612949e-06 
5.368623057e-06 
3.061199028e-06 
6.725644246e-06 
9.514589475e-06 
3.034031843e-06 
7.342266291e-06 
9.20597824e-06 
8.470889216e-06 
6.917411979e-06 
6.876736433e-06 
1.090339137e-05 
5.93575993e-06 
3.218019874e-06 
7.662923364e-06 
3.656105676e-06 
4.828301707e-06 
5.66190686e-06 
7.029838562e-06 
9.124354438e-06 
5.441757511e-06 
6.178843215e-06 
3.970470957e-06 
7.049307819e-06 
2.149836073e-06 
5.863790913e-06 
2.214096971e-06 
4.592286268e-06 
4.909774581e-06 
5.45771063e-06 
7.219291614e-06 
7.73681448e-06 
6.953650224e-06 
5.395818536e-06 
4.767850868e-06 
4.898652225e-06 
2.67606841e-06 
2.862106321e-06 
4.941725799e-06 
8.16681744e-06 
4.239906531e-06 
4.261749444e-06 
2.306193728e-06 
5.762157391e-06 
7.10957215e-06 
7.376488999e-06 
9.339129607e-06 
8.900740629e-06 
5.423093093e-06 
9.123944017e-06 
5.975699604e-06 
7.651289616e-06 
4.466612839e-06 
1.04117459e-05 
6.718258435e-06 
3.822210994e-06 
7.862904874e-06 
4.964007417e-06 
6.476492011e-06 
7.495343153e-06 
7.031976251e-06 
1.026911768e-05 
4.605207991e-06 
4.829506677e-06 
4.199521498e-06 
4.746658785e-06 
1.010979334e-05 
6.353698309e-06 
6.723862682e-06 
6.403041443e-06 
9.436320117e-06 
9.648763881e-06 
1.086097221e-05 
6.870569693e-06 
6.696569405e-06 
6.829832663e-06 
7.451613158e-06 
7.563087353e-06 
2.814250579e-06 
7.855450015e-06 
6.766107105e-06 
9.670415613e-06 
5.978778432e-06 
6.958177228e-06 
9.725900075e-06 
1.009796832e-05 
3.935261785e-06 
3.150237593e-06 
2.020002503e-06 
3.159248446e-06 
3.731878466e-06 
3.905652566e-06 
4.922950192e-06 
7.905736728e-06 
7.519778907e-06 
2.9223315e-06 
2.762417554e-06 
3.248077717e-06 
7.416909537e-06 
4.150681313e-06 
3.139370657e-06 
4.573635228e-06 
4.117344602e-06 
6.471485912e-06 
2.599803673e-06 
4.74175065e-06 
4.270096358e-06 
5.143510994e-06 
3.421636362e-06 
3.042276201e-06 
1.553922591e-06 
3.149943104e-06 
3.777579576e-06 
4.235554213e-06 
6.90688324e-06 
7.247090433e-06 
5.733651077e-06 
6.372041963e-06 
2.810432068e-06 
7.277991251e-06 
6.735599812e-06 
4.707475252e-06 
4.506596864e-06 
6.554058838e-06 
6.189804042e-06 
2.094931931e-06 
5.762335169e-06 
4.262612605e-06 
7.31656391e-06 
8.073850656e-06 
7.599583757e-06 
8.272665056e-06 
8.528485147e-06 
5.956494394e-06 
8.205379109e-06 