# vtk DataFile Version 3.0
MOAB 5.5.0
ASCII
DATASET UNSTRUCTURED_GRID
POINTS 1002 double
131.625 0 0
190 0 0
141.4830673 0 0
149.0903427 0 0
156.6938293 0 0
164.2776541 0 0
171.8078922 0 0
180.5341075 0 0
190 13.35 0
190 7.061874793 0
229.3618102 13.35 0
198.1376649 13.35 0
204.8183396 13.35 0
213.0000408 13.35 0
219.8168714 13.35 0
210.4354116 92.20629078 0
228.2518665 26.19442571 0
226.4942722 38.54098022 0
224.6624517 48.08165239 0
222.4007438 57.64522219 0
219.1990729 68.82462446 0
214.9665587 81.08292745 0
172.5163769 130.1253254 0
204.2851327 98.35656967 0
200.0403153 102.601387 0
196.3836287 106.2580736 0
193.447253 109.1944494 0
190.2789873 112.3627151 0
187.1555603 115.486142 0
184.1706585 118.4710438 0
180.8313868 121.8103156 0
177.0089397 125.6327626 0
148.4747464 106.0836948 0
165.7076994 123.3166479 0
156.8313944 114.4403428 0
106.0836948 148.4747464 0
142.0248226 112.5336187 0
136.331188 118.2272533 0
130.0158091 124.5426321 0
124.54263 130.0158112 0
118.2272303 136.3312109 0
112.533662 142.0247792 0
130.1253254 172.5163769 0
114.4399995 156.8310511 0
123.3170715 165.708123 0
92.20629078 210.4354116 0
125.6314336 177.0102688 0
121.8076827 180.8340196 0
118.4673146 184.1743878 0
115.4816219 187.1600805 0
112.3579097 190.2837927 0
109.1936453 193.4480571 0
106.2646629 196.3770395 0
102.6096329 200.0320695 0
98.36016463 204.2815377 0
13.35 229.3618102 0
81.17401814 214.9321783 0
68.94801428 219.1602925 0
57.79466515 222.3619553 0
48.21327289 224.6342423 0
38.27433423 226.5394841 0
25.95629467 228.2790688 0
13.35 190 0
13.35 219.832497 0
13.35 213.0081586 0
13.35 204.8244724 0
13.35 198.1418765 0
0 190 0
7.061892091 190 0
0 131.625 0
0 180.5333285 0
0 171.8072503 0
0 164.276711 0
0 156.692394 0
0 149.088565 0
0 141.4811971 0
9.910939106 131.2513387 0
19.80709958 130.1261674 0
29.05732331 128.3776172 0
38.59787394 125.8385662 0
46.89011977 122.9896634 0
55.7088525 119.2546199 0
64.64808987 114.6549829 0
71.98008554 110.1998544 0
80.07191059 104.4683194 0
86.55133069 99.16656584 0
93.18966887 92.95604468 0
99.34487911 86.34660167 0
104.6890208 79.78314079 0
110.2883451 71.84442615 0
114.7499554 64.47936389 0
119.3114435 55.58704954 0
123.0724044 46.6725177 0
125.8961222 38.40972574 0
128.4098442 28.91457289 0
130.1598281 19.58468203 0
131.260957 9.782729065 0
102.8741932 182.3877934 0
102.1102443 180.061126 0
100.228398 178.677098 0
97.84484353 178.6213578 0
95.83255938 180.0019563 0
95.02426155 182.3646279 0
95.84343978 184.7877769 0
97.90528927 186.1714278 0
100.2109435 186.10446 0
102.0941238 184.7362049 0
186.3127934 98.94919318 0
185.565608 96.64547461 0
183.4769869 95.1783468 0
180.9310801 95.30452427 0
179.0629458 96.86328482 0
178.4729666 99.23160543 0
179.3091841 101.3838985 0
181.2993322 102.720251 0
183.7983025 102.6119911 0
185.6785345 101.0885033 0
166.6401678 79.27656761 0
165.9481262 77.05089803 0
164.0322855 75.5791596 0
161.5084703 75.54166383 0
159.5284386 76.98519644 0
158.7941863 79.09900313 0
159.3938975 81.36816708 0
161.3515859 82.95709331 0
163.9052489 83.01679915 0
165.8914148 81.58244709 0
83.20156761 162.7151678 0
82.37340292 160.3036877 0
80.34592484 158.9386482 0
78.10868957 158.967944 0
76.1839081 160.2983347 0
75.35197542 162.6585893 0
76.11007862 165.034429 0
78.03847908 166.4397834 0
80.39997154 166.4759641 0
82.40267813 165.0885742 0
50.50174628 201.2988556 0
49.3006896 199.2622539 0
47.00392069 198.2703983 0
44.5491954 198.8838179 0
43.0402321 200.7063076 0
42.80989471 202.851462 0
43.92238743 204.9774709 0
46.23580693 206.0818744 0
48.7363063 205.5233896 0
50.31268836 203.6616177 0
44.54054334 175.4780488 0
43.46195993 173.5563244 0
41.73969078 172.5717905 0
39.62044855 172.5920186 0
37.69334328 173.8573204 0
36.79801229 176.1288315 0
37.41909531 178.4905629 0
39.18418003 179.974667 0
41.34581926 180.2351436 0
43.11676808 179.4662376 0
44.38968402 177.7432644 0
203.0647213 42.85294127 0
200.9067429 42.96521719 0
199.0291037 44.3393523 0
198.2572333 46.73643884 0
199.1011245 49.10944879 0
201.0779023 50.44391521 0
203.4428063 50.39425903 0
205.4025572 48.92061678 0
206.1007862 46.46036159 0
205.1297854 44.08602384 0
177.2439146 36.89173833 0
174.5801912 37.21836867 0
172.7924143 39.08183618 0
172.5037501 41.44235641 0
173.4777537 43.37933833 0
175.5949986 44.56567261 0
178.0596513 44.25452276 0
179.7462591 42.70247471 0
180.2828303 40.55888812 0
179.442167 38.28469633 0
138.3367665 6.767523602 0
193.5909053 19.68227966 0
201.2510335 90.08489081 0
139.1612059 103.3107317 0
103.5972438 159.2767747 0
82.87119182 204.5996127 0
10.94105573 183.1088565 0
104.8135679 180.9022641 0
187.7996016 97.66106528 0
168.1695668 77.60114612 0
84.79316036 160.4368594 0
51.54044328 199.0731014 0
45.38725924 173.6275748 0
201.9457174 41.08333667 0
175.4895705 34.8874313 0
148.55124 8.772793296 0
160.2214434 8.508896219 0
168.9316041 7.768438233 0
175.8660364 6.635856947 0
182.7249563 10.2506783 0
201.1362386 19.91005141 0
208.4313318 20.57597587 0
216.4463442 22.28402355 0
218.290568 32.09633234 0
216.7984632 41.69808912 0
214.914386 50.85301093 0
212.3086068 60.29771336 0
208.9383535 71.0326163 0
205.0832695 81.49378246 0
197.1187006 96.19539097 0
194.2612308 101.2594816 0
192.0814647 105.2959065 0
189.2977206 108.2968493 0
186.2836819 111.2505567 0
183.1277077 114.1134994 0
179.3021105 117.0378221 0
174.2528018 121.404935 0
166.7059881 112.3364948 0
159.4386688 105.2614698 0
134.3142443 110.0303674 0
126.9997674 114.7568388 0
118.3825544 123.8495815 0
108.3918795 132.0208209 0
101.7072275 140.9396916 0
111.89581 167.4741221 0
119.4477876 173.9878876 0
116.2798285 179.5122029 0
113.833981 183.3360422 0
111.2867499 186.4948878 0
108.4512284 189.4083491 0
105.3060447 192.1928933 0
101.7511541 195.0642965 0
97.39467024 198.0508593 0
91.38227149 201.1755229 0
72.30915338 207.885245 0
60.52807504 210.3260569 0
50.93604571 214.846708 0
41.63990344 216.9836475 0
32.11278189 218.5066092 0
22.34328984 216.4619253 0
20.74407009 208.3226244 0
20.04413069 200.9711747 0
19.81117963 193.6533743 0
8.403266132 175.0965353 0
7.185077269 167.4202347 0
6.021005827 160.8669262 0
9.471661865 153.5541734 0
16.72537379 137.5569089 0
25.64826853 137.5180775 0
35.78300151 135.729885 0
45.58946845 132.871766 0
55.0292925 129.1874217 0
64.31896356 124.7758571 0
73.16205994 119.8037642 0
81.44702465 114.1494629 0
88.72713537 108.0189676 0
95.48654475 102.0864009 0
102.5161582 95.78782613 0
109.0527722 88.54920697 0
114.8383284 80.63742529 0
120.1158715 72.39564279 0
124.9537381 63.75055619 0
129.2625976 54.59187725 0
132.8337854 45.24563909 0
135.6045928 35.55362678 0
137.5944769 25.50721151 0
138.8213718 15.30482289 0
103.1960939 178.2563879 0
98.82546416 176.5855379 0
101.5112288 176.167842 0
96.28120497 177.1274728 0
93.16227527 180.6891154 0
93.64455606 177.9470392 0
93.03804403 183.2824103 0
95.21139888 187.2265435 0
99.42708076 188.0645245 0
102.0679467 187.049435 0
104.4865283 184.5677232 0
186.5492462 94.95408755 0
181.8351516 93.02893202 0
184.7017978 92.58559446 0
179.2426508 93.82358059 0
176.4811593 97.72506126 0
176.7414563 94.88416012 0
176.5532757 100.5253948 0
179.6152645 104.0181922 0
182.5344653 104.7891174 0
185.5952436 103.5277406 0
187.8664753 101.0150282 0
166.8617861 75.27469151 0
162.8812295 73.31994355 0
165.3277436 73.49888047 0
160.1313391 73.83387498 0
156.9228447 77.48321867 0
157.4939262 74.70289135 0
156.7084301 80.2228641 0
159.4236138 84.18566254 0
156.9462502 83.13187717 0
161.8065783 85.2136365 0
166.0525973 84.18778752 0
168.6586207 80.41240893 0
83.17359317 158.2776118 0
79.08510302 156.7563134 0
81.43701148 156.6711566 0
76.51537663 157.4181976 0
73.46790893 161.10277 0
73.9282942 158.3665116 0
73.29173887 163.8468079 0
76.10540686 167.9489448 0
73.44616006 166.7999792 0
78.69254672 168.7952588 0
82.8353291 167.43975 0
84.57727225 165.35058 0
49.73828441 197.0389672 0
44.92108555 196.3652509 0
42.53218655 197.677186 0
40.8196345 201.8690938 0
40.24106117 199.2458012 0
41.30806325 204.1377144 0
44.47247402 207.5440465 0
47.46180793 207.7879185 0
50.46241093 206.7209914 0
52.62285424 201.6591636 0
43.71782903 171.8585687 0
41.64575125 170.7834907 0
37.69704463 171.2874028 0
39.6955537 170.1559576 0
35.63783265 173.1051833 0
34.90947565 178.1119803 0
33.68029114 175.2964968 0
36.42291996 180.4096978 0
40.28185741 181.9861287 0
38.06514637 181.9559384 0
42.62471177 181.6155137 0
44.81000794 180.5084976 0
46.39059939 176.0115428 0
199.259747 41.40123912 0
196.1185415 45.13692144 0
196.1787676 47.88536318 0
199.0090344 51.85564148 0
196.4217076 50.58535119 0
201.6940091 52.7245785 0
206.0117793 50.97794137 0
208.3383862 48.50581888 0
207.7372579 45.00186413 0
204.6062521 41.55721927 0
172.8807104 35.99185371 0
170.5191718 40.1117998 0
170.52614 37.32203861 0
170.9246116 42.58728578 0
173.5185096 45.75355557 0
171.5683483 44.61421144 0
176.0840781 46.5957336 0
180.4988142 44.84586316 0
181.9290464 42.83713615 0
181.7691314 38.38330212 0
183.2740316 40.60833797 0
180.273168 36.31526158 0
184.6121128 19.29638152 0
170.2080697 117.793898 0
146.0074104 96.48939784 0
96.84877608 150.6471807 0
124.6304045 172.3056641 0
19.82476984 185.45021 0
8.025389041 141.679958 0
86.11898619 162.9544101 0
178.506872 34.200597 0
156.8066014 18.1804276 0
166.0800494 16.27434927 0
197.4274688 26.03007429 0
204.23854 26.38287899 0
210.7917747 28.11673371 0
210.8266147 35.73430361 0
211.2759643 45.54926142 0
209.9351736 54.08417988 0
203.5849118 62.49267632 0
196.4329524 82.49948841 0
194.0114284 89.80827673 0
192.9724464 97.20199763 0
190.6480419 102.2463726 0
188.4553288 104.5838467 0
185.2535013 107.1342559 0
182.5908983 110.1367542 0
179.2284319 112.317037 0
154.4102333 98.0272274 0
167.7893979 103.3093757 0
126.9337171 101.3101071 0
115.8082328 110.5693832 0
104.4349845 118.7196596 0
94.8286586 130.3055645 0
102.8147591 168.1975381 0
112.486971 175.1486866 0
111.5248035 179.7137726 0
109.8852769 183.0697781 0
107.6645066 185.780134 0
104.8787001 188.2624115 0
101.2988555 190.5509629 0
[...]
CELL_DATA 1820
SCALARS DD_DISTANCE_AVE double 1
LOOKUP_TABLE default
5.073453077e-06 
4.997525946e-06 
5.441310806e-06 
5.573149433e-06 
6.177979599e-06 
5.75220734e-06 
5.783168229e-06 
6.326732172e-06 
6.628510068e-06 
6.60490845e-06 
5.806098622e-06 
6.249909336e-06 
5.839824445e-06 
5.958708459e-06 
6.38367927e-06 
6.101891063e-06 
5.416808844e-06 
5.97912141e-06 
6.164465003e-06 
6.382942591e-06 
6.494353609e-06 
6.668646959e-06 
4.990096526e-06 
4.876159176e-06 
5.444703879e-06 
5.934637266e-06 
5.485472142e-06 
5.559659809e-06 
6.777061034e-06 
6.669195412e-06 
5.814752746e-06 
5.851898184e-06 
6.736766541e-06 
6.765096004e-06 
5.267364121e-06 
5.263272895e-06 
5.233336409e-06 
5.315044566e-06 
5.228940373e-06 
5.957309676e-06 
6.672562594e-06 
6.763418012e-06 
6.78869713e-06 
5.754759631e-06 
5.206662679e-06 
5.550599317e-06 
5.464494156e-06 
6.072324836e-06 
4.92562928e-06 
5.052728696e-06 
5.583766403e-06 
5.240993389e-06 
5.737079238e-06 
5.84033304e-06 
5.413710581e-06 
5.602581152e-06 
5.33564589e-06 
5.291210018e-06 
6.075024172e-06 
6.400891745e-06 
6.783554457e-06 
6.742445844e-06 
4.91042121e-06 
5.122872707e-06 
4.898176979e-06 
4.978443687e-06 
5.235791829e-06 
5.041061737e-06 
4.84856235e-06 
4.864762859e-06 
6.797596108e-06 
6.735029998e-06 
6.737260506e-06 
6.881698254e-06 
5.043244098e-06 
5.055373968e-06 
6.721100674e-06 
5.328993736e-06 
5.030078685e-06 
5.009844899e-06 
5.702719764e-06 
5.167645776e-06 
6.058455911e-06 
5.261689168e-06 
7.279821641e-06 
7.386823086e-06 
6.367797477e-06 
6.171567971e-06 
5.293962544e-06 
6.185322476e-06 
6.514268519e-06 
6.82736309e-06 
6.686061272e-06 
6.533903894e-06 
6.582156868e-06 
5.962676412e-06 
5.448973032e-06 
5.095197627e-06 
5.03808164e-06 
5.433239892e-06 
5.048486542e-06 
5.050285841e-06 
5.108822988e-06 
5.169964897e-06 
6.088571105e-06 
5.678458399e-06 
5.387710941e-06 
5.84371116e-06 
6.317496394e-06 
6.992134118e-06 
6.378174336e-06 
6.698958843e-06 
6.782054215e-06 
5.24164552e-06 
5.882050438e-06 
5.518285392e-06 
6.43149431e-06 
6.118337862e-06 
7.425923313e-06 
7.254514056e-06 
6.459501608e-06 
6.928454275e-06 
6.09671977e-06 
5.322227271e-06 
5.030193139e-06 
5.039963969e-06 
5.559264626e-06 
4.99171679e-06 
5.259749493e-06 
5.173637975e-06 
5.152050938e-06 
5.372266399e-06 
4.851214003e-06 
5.13486804e-06 
6.608651884e-06 
6.223791669e-06 
6.688522588e-06 
6.809089961e-06 
6.779053087e-06 
6.700819447e-06 
6.541096343e-06 
6.541013669e-06 
5.343161548e-06 
6.397085607e-06 
5.100999995e-06 
5.496251288e-06 
5.067464242e-06 
5.36716935e-06 
4.915110932e-06 
5.029250892e-06 
5.734260835e-06 
5.092531667e-06 
6.473126971e-06 
6.40792584e-06 
6.56730597e-06 
6.74219914e-06 
6.778500938e-06 
6.722484038e-06 
6.568772441e-06 
6.841753321e-06 
4.828043363e-06 
4.888732413e-06 
5.516039493e-06 
5.967682444e-06 
5.017685301e-06 
4.954077376e-06 
4.93336633e-06 
4.94523615e-06 
4.919650278e-06 
4.739954098e-06 
6.017339212e-06 
5.211475704e-06 
4.979525057e-06 
4.997247309e-06 
6.997086748e-06 
7.036904472e-06 
6.788408503e-06 
6.907281345e-06 
6.583642358e-06 
6.846573705e-06 
6.742609852e-06 
5.871189689e-06 
6.834434242e-06 
6.747862879e-06 
6.450663874e-06 
6.289476436e-06 
6.667708656e-06 
6.587947277e-06 
4.735073154e-06 
5.731160064e-06 
5.024073413e-06 
5.235073538e-06 
5.271758368e-06 
5.013749377e-06 
5.003047842e-06 
5.154353905e-06 
5.787159876e-06 
5.107448671e-06 
6.420642183e-06 
6.911605003e-06 
7.188647865e-06 
6.778354367e-06 
7.215516113e-06 
7.112486434e-06 
7.057202608e-06 
5.659232055e-06 
4.998611301e-06 
4.902216288e-06 
4.879168178e-06 
5.279757318e-06 
6.040172738e-06 
4.934817792e-06 
6.996659738e-06 
7.220648907e-06 
7.680128153e-06 
7.290106543e-06 
6.956556462e-06 
7.312309474e-06 
5.949073833e-06 
5.828989228e-06 
6.16645652e-06 
6.810621705e-06 
7.482962385e-06 
6.814296738e-06 
5.798541525e-06 
6.759726467e-06 
4.969965469e-06 
5.453083724e-06 
4.909188666e-06 
4.754309996e-06 
5.422728228e-06 
5.574503569e-06 
5.937426589e-06 
5.197603004e-06 
6.926924432e-06 
6.946545356e-06 
6.823734876e-06 
6.756848682e-06 
7.202900599e-06 
6.60028446e-06 
6.502244653e-06 
6.662201905e-06 
6.459863655e-06 
6.759965171e-06 
6.38863216e-06 
6.99010044e-06 
6.175903473e-06 
5.612509109e-06 
5.387193723e-06 
5.082501911e-06 
5.13531205e-06 
5.185857071e-06 
4.990677101e-06 
4.673137812e-06 
6.34947197e-06 
6.330681743e-06 
6.790257962e-06 
6.476019121e-06 
7.429267333e-06 
6.891248274e-06 
5.194545053e-06 
5.094659147e-06 
6.989785781e-06 
5.134144351e-06 
5.426093621e-06 
5.033157143e-06 
6.189002187e-06 
5.390368667e-06 
5.808213193e-06 
7.125823492e-06 
7.328935909e-06 
7.661117631e-06 
7.157803492e-06 
7.040889209e-06 
6.937236526e-06 
6.936422728e-06 
6.279864478e-06 
6.711329863e-06 
5.978096552e-06 
6.090611458e-06 
5.246097173e-06 
5.24960211e-06 
5.998841884e-06 
6.144426969e-06 
6.276301833e-06 
5.985470424e-06 
6.1424446e-06 
5.844805583e-06 
4.804414125e-06 
4.770126971e-06 
4.455579031e-06 
5.010050403e-06 
6.446030918e-06 
5.233694549e-06 
5.288943225e-06 
6.080879957e-06 
4.863405577e-06 
5.272141819e-06 
4.804370001e-06 
4.975392208e-06 
6.873698839e-06 
6.833271804e-06 
6.754368927e-06 
6.857482354e-06 
6.842471317e-06 
6.732977996e-06 
6.393496284e-06 
7.041010332e-06 
7.150997734e-06 
6.823650075e-06 
5.94142862e-06 
5.585875432e-06 
5.128571021e-06 
5.707062006e-06 
5.339705804e-06 
4.814435337e-06 
7.474832356e-06 
7.497579209e-06 
6.315802857e-06 
6.629702703e-06 
7.734884806e-06 
7.400363658e-06 
6.810765092e-06 
6.464396724e-06 
7.085003472e-06 
7.447390503e-06 
6.693874799e-06 
6.418641505e-06 
6.762516696e-06 
6.795240567e-06 
6.117261769e-06 
7.012761737e-06 
5.20438771e-06 
5.16386305e-06 
5.699458974e-06 
6.002909339e-06 
4.933765092e-06 
5.741654552e-06 
4.670376531e-06 
4.878497136e-06 
4.986414716e-06 
5.091578707e-06 
4.973499651e-06 
5.53199952e-06 
4.977868314e-06 
4.980518889e-06 
6.328719414e-06 
6.304022946e-06 
4.620681904e-06 
5.700453231e-06 
6.753755035e-06 
6.769630077e-06 
6.871968136e-06 
7.516505486e-06 
6.794120507e-06 
6.892793866e-06 
6.325808951e-06 
6.883515299e-06 
7.092133112e-06 
6.678246302e-06 
6.702381819e-06 
6.20881724e-06 
6.645876038e-06 
6.902387385e-06 
6.705912946e-06 
6.525673419e-06 
7.278691521e-06 
7.132518189e-06 
7.345360118e-06 
7.417095001e-06 
5.509665581e-06 
4.667683884e-06 
5.141592592e-06 
5.112178357e-06 
5.660445804e-06 
4.811966337e-06 
4.761210551e-06 
5.189710427e-06 
4.428577051e-06 
5.080158515e-06 
5.570370118e-06 
6.317752121e-06 
5.728755397e-06 
6.02107464e-06 
7.629053146e-06 
7.538919218e-06 
7.641475744e-06 
7.487817854e-06 
6.40167107e-06 
6.604986389e-06 
5.642763408e-06 
5.376752928e-06 
5.403825513e-06 
5.575195821e-06 
4.730129975e-06 
5.031222388e-06 
4.91323693e-06 
6.197799586e-06 
6.520296094e-06 
5.193920661e-06 
5.440175685e-06 
6.196148934e-06 
7.459289668e-06 
7.201196873e-06 
7.221537202e-06 
7.101850366e-06 
7.673916697e-06 
7.126545268e-06 
7.613301449e-06 
7.308025532e-06 
6.237377988e-06 
7.038497512e-06 
4.835904367e-06 
5.437776341e-06 
7.427449753e-06 
6.79465207e-06 
7.30896048e-06 
7.190229241e-06 
7.397682427e-06 
7.254538128e-06 
5.696216632e-06 
6.59766415e-06 
7.126116776e-06 
7.462318984e-06 
7.387033577e-06 
7.726348618e-06 
7.011373875e-06 
7.565317096e-06 
6.235838045e-06 
6.950926261e-06 
7.416920411e-06 
7.535321757e-06 
4.9511432e-06 
5.832505195e-06 
5.302802157e-06 
5.00428751e-06 
5.29629056e-06 
4.847863749e-06 
6.369294346e-06 
6.636337115e-06 
6.889682367e-06 
6.74694204e-06 
7.061413521e-06 
7.260553923e-06 
7.335987041e-06 
6.933168201e-06 
6.752604764e-06 
6.287902369e-06 
6.046314562e-06 
6.372256236e-06 
6.816802318e-06 
6.085842271e-06 
7.133660617e-06 
7.430326672e-06 
6.028592697e-06 
6.43478685e-06 
6.158579881e-06 
4.939044341e-06 
4.062529519e-06 
4.833645325e-06 
4.619588749e-06 
3.779390346e-06 
4.632111251e-06 
5.294025907e-06 
4.925696356e-06 
4.71083262e-06 
4.920341823e-06 
5.002592689e-06 
6.849264179e-06 
4.800330994e-06 
4.588815922e-06 
4.901196872e-06 
5.157110127e-06 
4.709961496e-06 
6.385690524e-06 
6.389033667e-06 
7.45579554e-06 
6.959859562e-06 
7.020764849e-06 
7.315922415e-06 
5.302901196e-06 
5.658004388e-06 
4.879466028e-06 
5.431188567e-06 
6.432664026e-06 
4.928194088e-06 
7.335798062e-06 
5.770756603e-06 
7.661565961e-06 
7.520316753e-06 
7.609915471e-06 
7.301354859e-06 
7.481329296e-06 
7.069541376e-06 
6.774040066e-06 
6.676728125e-06 
6.099163159e-06 
6.626405097e-06 
6.418263518e-06 
5.836982156e-06 
6.775465678e-06 
6.781591426e-06 
5.394670554e-06 
5.155944743e-06 
4.977337312e-06 
5.050266587e-06 
3.837391261e-06 
4.896828277e-06 
5.359046132e-06 
6.442884358e-06 
6.168026617e-06 
6.219696867e-06 
6.323633311e-06 
4.762305726e-06 
5.125267887e-06 
5.995348389e-06 
4.912827726e-06 
4.340202371e-06 
5.815124148e-06 
5.081503218e-06 
5.464710768e-06 
5.063797853e-06 
5.102882273e-06 
5.020569508e-06 
6.537672859e-06 
6.666483258e-06 
5.404553131e-06 
7.051540581e-06 
6.727757786e-06 
6.95938516e-06 
6.433209801e-06 
6.601723377e-06 
6.601618864e-06 
6.825327501e-06 
6.843118904e-06 
5.910355628e-06 
5.904475055e-06 
6.311074443e-06 
6.116603736e-06 
5.687349713e-06 
6.49632313e-06 
7.716734182e-06 
7.089487402e-06 
7.723698544e-06 
5.943235504e-06 
6.040847563e-06 
5.509925328e-06 
4.992207888e-06 
7.575268139e-06 
6.388586115e-06 
7.702102935e-06 
7.802970714e-06 
5.757634478e-06 
5.577503251e-06 
6.860714275e-06 
6.264345798e-06 
6.458043719e-06 
5.87519538e-06 
6.151986313e-06 
5.736856324e-06 
6.156646933e-06 
6.96720967e-06 
7.1068057e-06 
6.603409134e-06 
7.02399747e-06 
7.823797625e-06 
7.190715391e-06 
4.884018858e-06 
6.308877485e-06 
5.308502426e-06 
6.126447784e-06 
6.03568392e-06 
5.744506028e-06 
4.906704611e-06 
4.300962004e-06 
4.814896287e-06 
4.225216813e-06 
5.120646338e-06 
4.89833714e-06 
5.173116445e-06 
5.501877039e-06 
5.055601063e-06 
4.714758615e-06 
5.18141598e-06 
5.357428502e-06 
4.564119082e-06 
4.064280281e-06 
5.146012015e-06 
5.54725502e-06 
4.751225671e-06 
4.75722099e-06 
4.778586476e-06 
5.226585306e-06 
4.608464941e-06 
5.366066315e-06 
4.779736887e-06 
5.848174641e-06 
5.6394629e-06 
5.673195668e-06 
7.190325995e-06 
7.188058218e-06 
7.372096222e-06 
7.14066144e-06 
7.349013428e-06 
7.17658712e-06 
7.311127984e-06 
7.043102738e-06 
7.284423238e-06 
7.072187769e-06 
7.262519147e-06 
6.879943175e-06 
6.31204547e-06 
7.04623086e-06 
7.27877576e-06 
7.122723561e-06 
7.17235609e-06 
7.270634414e-06 
6.349046299e-06 
6.358546847e-06 
7.164295885e-06 
5.595815898e-06 
7.339969728e-06 
7.216444266e-06 
6.042443523e-06 
7.215101226e-06 
6.473901236e-06 
6.925653071e-06 
6.42400608e-06 
5.007569669e-06 
5.927067296e-06 
5.533585081e-06 
4.161785342e-06 
4.309017129e-06 
4.586711353e-06 
6.041469465e-06 
4.706829474e-06 
4.618062623e-06 
5.077582733e-06 
5.408168654e-06 
4.589848535e-06 
4.714275319e-06 
4.08459719e-06 
4.48296678e-06 
4.940412836e-06 
4.556000084e-06 
5.869344713e-06 
7.058140753e-06 
7.254422092e-06 
5.022333643e-06 
5.953639005e-06 
6.950350989e-06 
6.516984867e-06 
5.765154065e-06 
6.032351834e-06 
7.863226378e-06 
4.849112371e-06 
7.010718287e-06 
4.678287988e-06 
5.698148108e-06 
4.586906211e-06 
4.997463607e-06 
4.59237986e-06 
4.941949134e-06 
5.06052719e-06 
4.282043249e-06 
6.259285375e-06 
4.556917127e-06 
4.698473578e-06 
5.460619702e-06 
4.271115793e-06 
3.58746742e-06 
5.909504406e-06 
4.403397872e-06 
3.824171049e-06 
4.07643587e-06 
4.551996449e-06 
4.139471744e-06 
6.56874669e-06 
5.966169346e-06 
7.489666707e-06 
7.437467085e-06 
7.191124417e-06 
7.221463851e-06 
8.011504086e-06 
7.107147583e-06 
7.749074388e-06 
8.534818003e-06 
7.110843753e-06 
5.468506855e-06 
7.268451902e-06 
6.678307833e-06 
7.992321283e-06 
3.558520613e-06 
4.700584695e-06 
5.456845903e-06 
4.054741728e-06 
6.636248654e-06 
7.54737556e-06 
7.055656762e-06 
6.890519845e-06 
7.579001741e-06 
6.72729272e-06 
7.126568485e-06 
6.601118698e-06 
7.070460172e-06 
5.725084384e-06 
6.545368227e-06 
6.275025231e-06 
4.97129821e-06 
4.98377208e-06 
4.273937192e-06 
6.424055832e-06 
5.619965262e-06 
5.457021661e-06 
7.803768786e-06 
7.689889165e-06 
8.432314013e-06 
6.696663945e-06 
5.812046973e-06 
7.71153052e-06 
5.028622304e-06 
6.467205522e-06 
4.93909944e-06 
6.283156746e-06 
7.350853364e-06 
7.147578599e-06 
7.359592168e-06 
8.006007112e-06 
5.820034307e-06 
6.101575985e-06 
4.65978708e-06 
4.460422792e-06 
6.061820381e-06 
4.78108674e-06 
5.539347298e-06 
7.254582541e-06 
4.413293194e-06 
5.117699304e-06 
4.936815328e-06 
5.477754226e-06 
4.368229194e-06 
4.663777657e-06 
4.954918332e-06 
6.002283333e-06 
7.007699222e-06 
5.926725909e-06 
8.703582707e-06 
6.765331188e-06 
7.654814952e-06 
8.049174775e-06 
4.337570874e-06 
6.295191571e-06 
4.476797696e-06 
4.732675913e-06 
4.899853185e-06 
3.787259358e-06 
5.794377596e-06 
7.463471557e-06 
8.137192003e-06 
6.588731314e-06 
7.545274841e-06 
8.453350609e-06 
7.920355459e-06 
7.126689572e-06 
5.588618813e-06 
7.707225725e-06 
5.118030362e-06 
6.250172419e-06 
5.500161534e-06 
4.85473792e-06 
6.917839517e-06 
4.758334603e-06 
6.026358026e-06 
7.034616239e-06 
6.313859515e-06 
5.426630902e-06 
3.798988086e-06 
3.703903369e-06 
5.991717682e-06 
5.004508086e-06 
4.176206862e-06 
5.70091726e-06 
6.804762481e-06 
6.059696791e-06 
6.991064981e-06 
6.197139459e-06 
6.416164281e-06 
7.020193242e-06 
4.697665935e-06 
4.705751416e-06 
3.935757511e-06 
3.448494889e-06 
6.199069079e-06 
5.418718154e-06 
4.216811359e-06 
4.652629e-06 
5.252546929e-06 
6.640664772e-06 
4.822525236e-06 
4.154638944e-06 
8.058280011e-06 
7.367006776e-06 
6.275022883e-06 
4.753899062e-06 
5.621277959e-06 
7.643187306e-06 
6.953892313e-06 
7.937646179e-06 
7.183462722e-06 
7.172381216e-06 
7.678318966e-06 
7.295822406e-06 
5.05724904e-06 
6.350491883e-06 
5.97740428e-06 
5.86210724e-06 
4.882794152e-06 
7.241480436e-06 
7.055902977e-06 
7.719056371e-06 
8.672960233e-06 
5.341360048e-06 
5.045567863e-06 
4.82786905e-06 
5.035885239e-06 
8.336427757e-06 
7.322475361e-06 
7.785052797e-06 
4.620467194e-06 
8.404538414e-06 
7.151505398e-06 
7.840767328e-06 
7.374942712e-06 
5.316664479e-06 
7.161427751e-06 
6.748775881e-06 
4.87732563e-06 
5.997490592e-06 
6.542992259e-06 
7.521793774e-06 
5.804610294e-06 
7.728598083e-06 
7.26191865e-06 
8.05952346e-06 
5.213200585e-06 
4.952843027e-06 
8.077574378e-06 
5.833460645e-06 
7.334898976e-06 
6.259469091e-06 
5.509289354e-06 
7.559320801e-06 
4.780220857e-06 
4.293135278e-06 
4.353218153e-06 
5.029998324e-06 
3.862800601e-06 
6.148823324e-06 
5.415095594e-06 
4.572538691e-06 
5.497168356e-06 
5.903690727e-06 
4.476013281e-06 
4.461082758e-06 
6.175635213e-06 
5.395380878e-06 
6.845315318e-06 
6.329757941e-06 
4.738987013e-06 
5.208886678e-06 
4.404030783e-06 
4.319538479e-06 
5.559973304e-06 
5.189665772e-06 
3.773923935e-06 
6.095232533e-06 
4.463435847e-06 
5.919429686e-06 
6.135457556e-06 
4.951181864e-06 
6.417135783e-06 
7.721590648e-06 
7.811685742e-06 
7.26953865e-06 
7.664780382e-06 
6.60821616e-06 
7.615188563e-06 
7.801628396e-06 
5.527929228e-06 
6.48359773e-06 
7.480133821e-06 
7.279464188e-06 
6.983173935e-06 
7.527580235e-06 
6.091977599e-06 
7.290588236e-06 
7.006738415e-06 
6.618001539e-06 
7.14036602e-06 
6.949497128e-06 
7.45124943e-06 
7.279560977e-06 
7.405217771e-06 
7.549697136e-06 
6.341720935e-06 
7.603068253e-06 
7.650008701e-06 
7.731031624e-06 
7.701628699e-06 
7.790954802e-06 
7.808912091e-06 
7.840722239e-06 
7.221483484e-06 
7.526427117e-06 
7.776694919e-06 
7.915708629e-06 
7.098814366e-06 
6.343256392e-06 
6.856518391e-06 
6.150254956e-06 
6.747175033e-06 
5.077777754e-06 
4.43284304e-06 
5.249188535e-06 
4.520117319e-06 
3.174037585e-06 
4.417175322e-06 
4.360384028e-06 
4.355617856e-06 
4.291386886e-06 
4.154207801e-06 
4.612387407e-06 
4.009687341e-06 
3.954998121e-06 
3.528583631e-06 
3.83167287e-06 
2.791599257e-06 
3.361282292e-06 
4.527815638e-06 
3.60009195e-06 
4.236867427e-06 
3.84989203e-06 
3.921744898e-06 
6.177084595e-06 
5.729713837e-06 
5.432004266e-06 
5.592879056e-06 
7.237877581e-06 
5.435646257e-06 
7.057866846e-06 
4.981292947e-06 
6.593223889e-06 
5.86591479e-06 
5.964169686e-06 
4.264530501e-06 
4.721371481e-06 
4.26124167e-06 
4.279641277e-06 
3.616532109e-06 
3.954243273e-06 
3.35346541e-06 
3.401706133e-06 
3.509555723e-06 
3.324887913e-06 
3.919152488e-06 
3.694007156e-06 
4.167511874e-06 
5.520587506e-06 
4.105177637e-06 
5.057096582e-06 
6.250641281e-06 
5.740542183e-06 
4.327830147e-06 
4.136073805e-06 
3.918839973e-06 
4.091866713e-06 
5.136393897e-06 
4.634601261e-06 
6.835672184e-06 
6.165477971e-06 
5.539460119e-06 
6.955698703e-06 
6.748619924e-06 
4.592781177e-06 
6.741880844e-06 
5.623726511e-06 
7.067538775e-06 
4.874571127e-06 
6.801646543e-06 
9.579881857e-06 
5.942469068e-06 
7.660978268e-06 
8.320868596e-06 
8.023957163e-06 
7.026575605e-06 
5.282241828e-06 
4.67183461e-06 
8.10573006e-06 
6.617991671e-06 
4.958086647e-06 
4.578741871e-06 
7.448290484e-06 
7.995787608e-06 
5.021759422e-06 
3.204407952e-06 
9.789706478e-06 
4.308059791e-06 
5.559212165e-06 
3.761862862e-06 
7.51166022e-06 
6.70046395e-06 
4.188440555e-06 
7.390893082e-06 
6.423513637e-06 
7.476354496e-06 
8.780038582e-06 
1.045624379e-05 
4.456855646e-06 
1.041006195e-05 
7.884874974e-06 
5.570400315e-06 
4.023390687e-06 
6.656456252e-06 
2.551193347e-06 
7.228779138e-06 
5.993271411e-06 
5.902994089e-06 
3.945885976e-06 
2.914671621e-06 
2.318307628e-06 
3.994807073e-06 
5.525731752e-06 
6.456842337e-06 
7.485249545e-06 
6.690167913e-06 
8.668625358e-06 
4.596502183e-06 
5.851794851e-06 
8.313018209e-06 
2.558782396e-06 
2.684403172e-06 
3.288881593e-06 
5.510770834e-06 
7.89180372e-06 
8.144733206e-06 
8.938089854e-06 
7.921352243e-06 
1.069866783e-05 
7.875166601e-06 
2.57671305e-06 
7.245182396e-06 
5.37951918e-06 
5.370116452e-06 
3.12767115e-06 
6.725286364e-06 
9.5241929e-06 
3.098909178e-06 
7.341317389e-06 
9.247096973e-06 
8.577260711e-06 
6.917159241e-06 
6.900415421e-06 
1.101824987e-05 
5.936963641e-06 
3.242758308e-06 
7.665896994e-06 
3.657341564e-06 
4.946737649e-06 
5.661188092e-06 
7.028721139e-06 
9.088717261e-06 
5.439590885e-06 
6.206496244e-06 
3.998004361e-06 
7.038462881e-06 
2.240268013e-06 
5.98652305e-06 
2.229768738e-06 
4.592324474e-06 
4.937314252e-06 
5.457372235e-06 
7.221102015e-06 
7.856853677e-06 
6.953134348e-06 
5.395729282e-06 
4.78840608e-06 
4.899540383e-06 
2.7492996e-06 
2.868764672e-06 
4.967416535e-06 
8.16661388e-06 
4.241500674e-06 
4.260347541e-06 
2.421474322e-06 
5.758571886e-06 
7.121272451e-06 
7.36424814e-06 
9.364483437e-06 
8.932477666e-06 
5.520174846e-06 
9.229819373e-06 
5.974987752e-06 
7.651235921e-06 
4.550854399e-06 
1.052114352e-05 
6.7178003e-06 
3.823775709e-06 
7.97291649e-06 
4.968034454e-06 
6.473785395e-06 
7.495519741e-06 
7.062793528e-06 
1.028251473e-05 
4.605044295e-06 
4.82958189e-06 
4.197766324e-06 
4.847366781e-06 
1.012369933e-05 
6.386929549e-06 
6.722605097e-06 
6.404103932e-06 
9.425301168e-06 
9.772125429e-06 
1.098560854e-05 
6.869193681e-06 
6.696236097e-06 
6.828316143e-06 
7.596390432e-06 
7.562891768e-06 
2.900553242e-06 
7.855272605e-06 
6.765263733e-06 
9.70315934e-06 
6.04881972e-06 
6.956786085e-06 
9.843470399e-06 
1.011264139e-05 
3.934453559e-06 
3.150996944e-06 
2.03228553e-06 
3.162503719e-06 
3.738836409e-06 
3.906490474e-06 
4.922517677e-06 
8.034012803e-06 
7.511025001e-06 
3.054555813e-06 
2.777584685e-06 
3.25424954e-06 
7.538566682e-06 
4.238836395e-06 
3.171852169e-06 
4.57272395e-06 
4.116859247e-06 
6.49537029e-06 
2.710843117e-06 
4.74104327e-06 
4.269590174e-06 
5.155873488e-06 
3.422224615e-06 
3.04730544e-06 
1.604439049e-06 
3.137610083e-06 
3.778401363e-06 
4.235352013e-06 
6.925588154e-06 
7.360759909e-06 
5.733064598e-06 
6.362295567e-06 
2.815072716e-06 
7.405620891e-06 
6.875836337e-06 
4.804819465e-06 
4.533548111e-06 
6.552986891e-06 
6.188979328e-06 
2.198436033e-06 
5.752095537e-06 
4.262300885e-06 
7.330168694e-06 